2
# CELL(abcABC):   37.69329    37.69329    37.69329    90.00000    90.00000    90.00000  Step:           0  Bead:       1 positions{angstrom}  cell{angstrom}
       H  2.68822e-01  0.00000e+00  0.00000e+00
       H -2.68822e-01  1.58753e-01  5.29177e-03
2
# CELL(abcABC):   37.69329    37.69329    37.69329    90.00000    90.00000    90.00000  Step:           5  Bead:       1 positions{angstrom}  cell{angstrom}
       H  3.42016e-01 -4.05640e-02  4.21639e-02
       H -3.13555e-01  2.13839e-01  2.67510e-02
2
# CELL(abcABC):   37.69329    37.69329    37.69329    90.00000    90.00000    90.00000  Step:          10  Bead:       1 positions{angstrom}  cell{angstrom}
       H  4.21604e-01 -4.84501e-02  7.48697e-02
       H -3.94645e-01  2.81885e-01  1.77470e-02
2
# CELL(abcABC):   37.69329    37.69329    37.69329    90.00000    90.00000    90.00000  Step:          15  Bead:       1 positions{angstrom}  cell{angstrom}
       H  4.37988e-01 -1.92815e-02  7.35748e-02
       H -4.01339e-01  3.23756e-01  3.10865e-02
2
# CELL(abcABC):   37.69329    37.69329    37.69329    90.00000    90.00000    90.00000  Step:          20  Bead:       1 positions{angstrom}  cell{angstrom}
       H  3.50392e-01 -3.57806e-03  7.52158e-03
       H -3.22621e-01  3.31258e-01  5.06821e-02
2
# CELL(abcABC):   37.69329    37.69329    37.69329    90.00000    90.00000    90.00000  Step:          25  Bead:       1 positions{angstrom}  cell{angstrom}
       H  2.45370e-01 -1.72391e-02 -5.76411e-02
       H -2.35438e-01  3.10446e-01  5.54360e-02
2
# CELL(abcABC):   37.69329    37.69329    37.69329    90.00000    90.00000    90.00000  Step:          30  Bead:       1 positions{angstrom}  cell{angstrom}
       H  2.55266e-01 -3.19887e-02 -1.09823e-01
       H -2.37374e-01  3.59723e-01  2.72595e-02
2
# CELL(abcABC):   37.69329    37.69329    37.69329    90.00000    90.00000    90.00000  Step:          35  Bead:       1 positions{angstrom}  cell{angstrom}
       H  3.65901e-01 -3.24967e-02 -1.78855e-01
       H -2.96945e-01  4.33511e-01  3.01906e-02
2
# CELL(abcABC):   37.69329    37.69329    37.69329    90.00000    90.00000    90.00000  Step:          40  Bead:       1 positions{angstrom}  cell{angstrom}
       H  4.05954e-01 -2.77080e-02 -1.91360e-01
       H -3.01264e-01  4.53813e-01  4.94046e-02
2
# CELL(abcABC):   37.69329    37.69329    37.69329    90.00000    90.00000    90.00000  Step:          45  Bead:       1 positions{angstrom}  cell{angstrom}
       H  3.89322e-01  3.22940e-02 -1.60376e-01
       H -2.35641e-01  4.19032e-01  7.29039e-02
2
# CELL(abcABC):   37.69329    37.69329    37.69329    90.00000    90.00000    90.00000  Step:          50  Bead:       1 positions{angstrom}  cell{angstrom}
       H  3.28004e-01  1.13302e-01 -1.48007e-01
       H -1.63509e-01  3.64469e-01  1.23141e-01
2
# CELL(abcABC):   37.69329    37.69329    37.69329    90.00000    90.00000    90.00000  Step:          55  Bead:       1 positions{angstrom}  cell{angstrom}
       H  3.54993e-01  1.31916e-01 -1.53307e-01
       H -1.88425e-01  3.18795e-01  1.66759e-01
2
# CELL(abcABC):   37.69329    37.69329    37.69329    90.00000    90.00000    90.00000  Step:          60  Bead:       1 positions{angstrom}  cell{angstrom}
       H  4.76027e-01  1.03020e-01 -1.40433e-01
       H -3.01015e-01  2.78443e-01  2.21807e-01
2
# CELL(abcABC):   37.69329    37.69329    37.69329    90.00000    90.00000    90.00000  Step:          65  Bead:       1 positions{angstrom}  cell{angstrom}
       H  5.15066e-01  1.19316e-01 -1.19860e-01
       H -3.37259e-01  2.07098e-01  2.01099e-01
2
# CELL(abcABC):   37.69329    37.69329    37.69329    90.00000    90.00000    90.00000  Step:          70  Bead:       1 positions{angstrom}  cell{angstrom}
       H  4.53918e-01  1.36570e-01 -9.52977e-02
       H -2.83158e-01  1.54826e-01  1.20304e-01
2
# CELL(abcABC):   37.69329    37.69329    37.69329    90.00000    90.00000    90.00000  Step:          75  Bead:       1 positions{angstrom}  cell{angstrom}
       H  4.03878e-01  1.38802e-01 -7.36104e-02
       H -2.13917e-01  1.36366e-01  6.23261e-02
2
# CELL(abcABC):   37.69329    37.69329    37.69329    90.00000    90.00000    90.00000  Step:          80  Bead:       1 positions{angstrom}  cell{angstrom}
       H  4.36171e-01  8.50466e-02 -4.44354e-02
       H -1.84354e-01  1.13404e-01  3.86935e-02
2
# CELL(abcABC):   37.69329    37.69329    37.69329    90.00000    90.00000    90.00000  Step:          85  Bead:       1 positions{angstrom}  cell{angstrom}
       H  4.93403e-01  6.10194e-02  6.32660e-04
       H -2.98190e-01  1.36389e-01  1.08596e-02
2
# CELL(abcABC):   37.69329    37.69329    37.69329    90.00000    90.00000    90.00000  Step:          90  Bead:       1 positions{angstrom}  cell{angstrom}
       H  5.04859e-01  4.36262e-02  7.11131e-02
       H -3.84035e-01  1.59727e-01  2.31006e-02
2
# CELL(abcABC):   37.69329    37.69329    37.69329    90.00000    90.00000    90.00000  Step:          95  Bead:       1 positions{angstrom}  cell{angstrom}
       H  4.03966e-01  1.83548e-02  9.21763e-02
       H -3.87112e-01  1.92165e-01  5.62844e-02
2
# CELL(abcABC):   37.69329    37.69329    37.69329    90.00000    90.00000    90.00000  Step:         100  Bead:       1 positions{angstrom}  cell{angstrom}
       H  2.96866e-01  1.76245e-02  7.12068e-02
       H -3.32158e-01  1.94578e-01  9.65365e-02
2
# CELL(abcABC):   37.69329    37.69329    37.69329    90.00000    90.00000    90.00000  Step:         105  Bead:       1 positions{angstrom}  cell{angstrom}
       H  2.65155e-01  1.41887e-02  5.37321e-02
       H -3.22006e-01  1.56719e-01  1.32460e-01
2
# CELL(abcABC):   37.69329    37.69329    37.69329    90.00000    90.00000    90.00000  Step:         110  Bead:       1 positions{angstrom}  cell{angstrom}
       H  3.05603e-01  2.82359e-02  6.97970e-03
       H -3.85932e-01  1.09780e-01  1.88471e-01
2
# CELL(abcABC):   37.69329    37.69329    37.69329    90.00000    90.00000    90.00000  Step:         115  Bead:       1 positions{angstrom}  cell{angstrom}
       H  3.47338e-01  4.48715e-02 -4.20676e-02
       H -4.39292e-01  6.36839e-02  1.82579e-01
2
# CELL(abcABC):   37.69329    37.69329    37.69329    90.00000    90.00000    90.00000  Step:         120  Bead:       1 positions{angstrom}  cell{angstrom}
       H  3.43805e-01  7.25714e-02 -1.20253e-01
       H -3.97483e-01  4.29844e-02  1.19475e-01
2
# CELL(abcABC):   37.69329    37.69329    37.69329    90.00000    90.00000    90.00000  Step:         125  Bead:       1 positions{angstrom}  cell{angstrom}
       H  2.83234e-01  1.11242e-01 -1.49631e-01
       H -2.84217e-01  3.67204e-03  6.17978e-02
2
# CELL(abcABC):   37.69329    37.69329    37.69329    90.00000    90.00000    90.00000  Step:         130  Bead:       1 positions{angstrom}  cell{angstrom}
       H  2.93502e-01  1.59301e-01 -1.83025e-01
       H -2.91202e-01 -5.12811e-02  4.55592e-02
2
# CELL(abcABC):   37.69329    37.69329    37.69329    90.00000    90.00000    90.00000  Step:         135  Bead:       1 positions{angstrom}  cell{angstrom}
       H  3.68701e-01  2.00904e-01 -1.93089e-01
       H -3.19785e-01 -9.32517e-02  1.05497e-01
2
# CELL(abcABC):   37.69329    37.69329    37.69329    90.00000    90.00000    90.00000  Step:         140  Bead:       1 positions{angstrom}  cell{angstrom}
       H  3.85291e-01  1.96951e-01 -2.19277e-01
       H -3.25275e-01 -1.41770e-01  1.07890e-01
2
# CELL(abcABC):   37.69329    37.69329    37.69329    90.00000    90.00000    90.00000  Step:         145  Bead:       1 positions{angstrom}  cell{angstrom}
       H  3.66612e-01  1.62836e-01 -2.36151e-01
       H -3.10335e-01 -1.70028e-01  9.83321e-02
2
# CELL(abcABC):   37.69329    37.69329    37.69329    90.00000    90.00000    90.00000  Step:         150  Bead:       1 positions{angstrom}  cell{angstrom}
       H  3.14254e-01  8.47795e-02 -1.97695e-01
       H -2.44883e-01 -1.57105e-01  6.22462e-02
2
# CELL(abcABC):   37.69329    37.69329    37.69329    90.00000    90.00000    90.00000  Step:         155  Bead:       1 positions{angstrom}  cell{angstrom}
       H  3.06870e-01  4.53763e-02 -1.92232e-01
       H -1.90914e-01 -2.05395e-01  6.32744e-02
2
# CELL(abcABC):   37.69329    37.69329    37.69329    90.00000    90.00000    90.00000  Step:         160  Bead:       1 positions{angstrom}  cell{angstrom}
       H  3.82073e-01  3.29598e-02 -2.01286e-01
       H -2.00630e-01 -2.45650e-01  9.54831e-02
2
# CELL(abcABC):   37.69329    37.69329    37.69329    90.00000    90.00000    90.00000  Step:         165  Bead:       1 positions{angstrom}  cell{angstrom}
       H  4.07605e-01  3.85245e-02 -1.91970e-01
       H -2.02965e-01 -2.36683e-01  1.45742e-01
2
# CELL(abcABC):   37.69329    37.69329    37.69329    90.00000    90.00000    90.00000  Step:         170  Bead:       1 positions{angstrom}  cell{angstrom}
       H  4.28586e-01  4.97505e-02 -1.75204e-01
       H -2.15207e-01 -2.10085e-01  1.71367e-01
2
# CELL(abcABC):   37.69329    37.69329    37.69329    90.00000    90.00000    90.00000  Step:         175  Bead:       1 positions{angstrom}  cell{angstrom}
       H  4.25996e-01  8.32593e-02 -1.22288e-01
       H -1.98185e-01 -1.85771e-01  1.37029e-01
2
# CELL(abcABC):   37.69329    37.69329    37.69329    90.00000    90.00000    90.00000  Step:         180  Bead:       1 positions{angstrom}  cell{angstrom}
       H  4.05947e-01  1.10443e-01 -5.81781e-02
       H -1.61802e-01 -1.32364e-01  1.48717e-01
2
# CELL(abcABC):   37.69329    37.69329    37.69329    90.00000    90.00000    90.00000  Step:         185  Bead:       1 positions{angstrom}  cell{angstrom}
       H  4.09590e-01  1.42233e-01 -2.94448e-02
       H -1.97147e-01 -1.25781e-01  1.76487e-01
2
# CELL(abcABC):   37.69329    37.69329    37.69329    90.00000    90.00000    90.00000  Step:         190  Bead:       1 positions{angstrom}  cell{angstrom}
       H  4.11975e-01  1.55161e-01 -2.58267e-02
       H -2.34998e-01 -1.05170e-01  1.66194e-01
2
# CELL(abcABC):   37.69329    37.69329    37.69329    90.00000    90.00000    90.00000  Step:         195  Bead:       1 positions{angstrom}  cell{angstrom}
       H  4.06334e-01  1.74787e-01 -1.05579e-02
       H -2.90701e-01 -3.37076e-02  1.35778e-01
2
# CELL(abcABC):   37.69329    37.69329    37.69329    90.00000    90.00000    90.00000  Step:         200  Bead:       1 positions{angstrom}  cell{angstrom}
       H  3.63141e-01  2.07050e-01  1.28266e-02
       H -3.60331e-01 -1.02713e-02  1.17696e-01
2
# CELL(abcABC):   37.69329    37.69329    37.69329    90.00000    90.00000    90.00000  Step:         205  Bead:       1 positions{angstrom}  cell{angstrom}
       H  2.91405e-01  2.19329e-01  1.59636e-02
       H -3.90751e-01 -1.66242e-02  8.84267e-02
2
# CELL(abcABC):   37.69329    37.69329    37.69329    90.00000    90.00000    90.00000  Step:         210  Bead:       1 positions{angstrom}  cell{angstrom}
       H  2.38411e-01  2.36612e-01  3.01333e-02
       H -4.25949e-01 -4.12081e-02  4.28174e-02
2
# CELL(abcABC):   37.69329    37.69329    37.69329    90.00000    90.00000    90.00000  Step:         215  Bead:       1 positions{angstrom}  cell{angstrom}
       H  1.93793e-01  2.54846e-01 -6.33847e-03
       H -4.77491e-01 -5.35914e-02  3.25055e-02
2
# CELL(abcABC):   37.69329    37.69329    37.69329    90.00000    90.00000    90.00000  Step:         220  Bead:       1 positions{angstrom}  cell{angstrom}
       H  1.17612e-01  3.05146e-01 -2.25832e-02
       H -4.86546e-01 -7.02775e-02  5.21104e-02
2
# CELL(abcABC):   37.69329    37.69329    37.69329    90.00000    90.00000    90.00000  Step:         225  Bead:       1 positions{angstrom}  cell{angstrom}
       H  8.31550e-02  3.10885e-01 -4.94670e-02
       H -4.72759e-01 -8.27917e-02  5.96839e-02
2
# CELL(abcABC):   37.69329    37.69329    37.69329    90.00000    90.00000    90.00000  Step:         230  Bead:       1 positions{angstrom}  cell{angstrom}
       H  1.09250e-01  3.26376e-01 -9.76784e-02
       H -4.45760e-01 -1.16652e-01  8.43580e-02
2
# CELL(abcABC):   37.69329    37.69329    37.69329    90.00000    90.00000    90.00000  Step:         235  Bead:       1 positions{angstrom}  cell{angstrom}
       H  1.25056e-01  3.42190e-01 -1.67589e-01
       H -3.91974e-01 -1.67055e-01  1.27415e-01
2
# CELL(abcABC):   37.69329    37.69329    37.69329    90.00000    90.00000    90.00000  Step:         240  Bead:       1 positions{angstrom}  cell{angstrom}
       H  1.41463e-01  3.50289e-01 -2.29832e-01
       H -3.44246e-01 -2.09139e-01  1.69790e-01
2
# CELL(abcABC):   37.69329    37.69329    37.69329    90.00000    90.00000    90.00000  Step:         245  Bead:       1 positions{angstrom}  cell{angstrom}
       H  1.23929e-01  3.03719e-01 -2.62533e-01
       H -2.81763e-01 -1.92263e-01  1.79068e-01
2
# CELL(abcABC):   37.69329    37.69329    37.69329    90.00000    90.00000    90.00000  Step:         250  Bead:       1 positions{angstrom}  cell{angstrom}
       H  7.49472e-02  2.30464e-01 -2.67667e-01
       H -2.34090e-01 -1.04241e-01  1.83638e-01
2
# CELL(abcABC):   37.69329    37.69329    37.69329    90.00000    90.00000    90.00000  Step:         255  Bead:       1 positions{angstrom}  cell{angstrom}
       H  5.22933e-02  2.23177e-01 -2.65705e-01
       H -2.61085e-01 -4.47698e-02  2.34007e-01
2
# CELL(abcABC):   37.69329    37.69329    37.69329    90.00000    90.00000    90.00000  Step:         260  Bead:       1 positions{angstrom}  cell{angstrom}
       H  1.05012e-01  2.44718e-01 -2.59628e-01
       H -3.30465e-01 -4.17894e-03  3.25164e-01
2
# CELL(abcABC):   37.69329    37.69329    37.69329    90.00000    90.00000    90.00000  Step:         265  Bead:       1 positions{angstrom}  cell{angstrom}
       H  1.51176e-01  2.37494e-01 -2.26634e-01
       H -3.22815e-01  2.40450e-02  3.39606e-01
2
# CELL(abcABC):   37.69329    37.69329    37.69329    90.00000    90.00000    90.00000  Step:         270  Bead:       1 positions{angstrom}  cell{angstrom}
       H  1.45353e-01  2.20695e-01 -1.87128e-01
       H -2.71106e-01  4.11087e-02  3.06239e-01
2
# CELL(abcABC):   37.69329    37.69329    37.69329    90.00000    90.00000    90.00000  Step:         275  Bead:       1 positions{angstrom}  cell{angstrom}
       H  2.02354e-01  1.85289e-01 -1.51876e-01
       H -2.52009e-01  2.16071e-02  2.53095e-01
2
# CELL(abcABC):   37.69329    37.69329    37.69329    90.00000    90.00000    90.00000  Step:         280  Bead:       1 positions{angstrom}  cell{angstrom}
       H  2.59304e-01  1.83844e-01 -1.60594e-01
       H -3.04696e-01  1.66503e-03  2.44309e-01
2
# CELL(abcABC):   37.69329    37.69329    37.69329    90.00000    90.00000    90.00000  Step:         285  Bead:       1 positions{angstrom}  cell{angstrom}
       H  2.43048e-01  2.00463e-01 -1.87683e-01
       H -3.38558e-01 -1.20154e-02  2.83442e-01
2
# CELL(abcABC):   37.69329    37.69329    37.69329    90.00000    90.00000    90.00000  Step:         290  Bead:       1 positions{angstrom}  cell{angstrom}
       H  1.82381e-01  2.16185e-01 -1.81998e-01
       H -3.18702e-01 -3.98395e-02  3.24698e-01
2
# CELL(abcABC):   37.69329    37.69329    37.69329    90.00000    90.00000    90.00000  Step:         295  Bead:       1 positions{angstrom}  cell{angstrom}
       H  1.44611e-01  1.84448e-01 -1.64761e-01
       H -2.66813e-01 -6.40140e-02  3.16727e-01
2
# CELL(abcABC):   37.69329    37.69329    37.69329    90.00000    90.00000    90.00000  Step:         300  Bead:       1 positions{angstrom}  cell{angstrom}
       H  1.86227e-01  1.86790e-01 -1.40766e-01
       H -2.22511e-01 -8.16838e-02  3.18194e-01
2
# CELL(abcABC):   37.69329    37.69329    37.69329    90.00000    90.00000    90.00000  Step:         305  Bead:       1 positions{angstrom}  cell{angstrom}
       H  2.40242e-01  2.21203e-01 -1.24868e-01
       H -2.25425e-01 -7.08708e-02  3.93969e-01
2
# CELL(abcABC):   37.69329    37.69329    37.69329    90.00000    90.00000    90.00000  Step:         310  Bead:       1 positions{angstrom}  cell{angstrom}
       H  2.67340e-01  2.20014e-01 -9.28397e-02
       H -2.15217e-01 -1.09780e-02  4.38340e-01
2
# CELL(abcABC):   37.69329    37.69329    37.69329    90.00000    90.00000    90.00000  Step:         315  Bead:       1 positions{angstrom}  cell{angstrom}
       H  2.56589e-01  1.99099e-01 -1.17033e-01
       H -1.62053e-01  3.88594e-02  4.35288e-01
2
# CELL(abcABC):   37.69329    37.69329    37.69329    90.00000    90.00000    90.00000  Step:         320  Bead:       1 positions{angstrom}  cell{angstrom}
       H  2.35495e-01  2.23258e-01 -1.12991e-01
       H -1.14151e-01  6.09199e-02  4.43522e-01
2
# CELL(abcABC):   37.69329    37.69329    37.69329    90.00000    90.00000    90.00000  Step:         325  Bead:       1 positions{angstrom}  cell{angstrom}
       H  2.27606e-01  2.48134e-01 -1.31755e-01
       H -1.01983e-01  6.08611e-02  4.48569e-01
2
# CELL(abcABC):   37.69329    37.69329    37.69329    90.00000    90.00000    90.00000  Step:         330  Bead:       1 positions{angstrom}  cell{angstrom}
       H  2.22853e-01  2.40335e-01 -1.64521e-01
       H -1.11023e-01  3.56160e-02  4.14599e-01
2
# CELL(abcABC):   37.69329    37.69329    37.69329    90.00000    90.00000    90.00000  Step:         335  Bead:       1 positions{angstrom}  cell{angstrom}
       H  2.16403e-01  2.45561e-01 -2.31837e-01
       H -1.68361e-01  4.72953e-02  4.01879e-01
2
# CELL(abcABC):   37.69329    37.69329    37.69329    90.00000    90.00000    90.00000  Step:         340  Bead:       1 positions{angstrom}  cell{angstrom}
       H  1.95271e-01  2.55957e-01 -2.38880e-01
       H -1.77275e-01  1.06347e-01  3.57462e-01
2
# CELL(abcABC):   37.69329    37.69329    37.69329    90.00000    90.00000    90.00000  Step:         345  Bead:       1 positions{angstrom}  cell{angstrom}
       H  1.85853e-01  2.07285e-01 -2.26689e-01
       H -1.94751e-01  1.34083e-01  3.31012e-01
2
# CELL(abcABC):   37.69329    37.69329    37.69329    90.00000    90.00000    90.00000  Step:         350  Bead:       1 positions{angstrom}  cell{angstrom}
       H  1.77406e-01  1.58487e-01 -2.30746e-01
       H -2.04418e-01  1.28727e-01  3.39079e-01
2
# CELL(abcABC):   37.69329    37.69329    37.69329    90.00000    90.00000    90.00000  Step:         355  Bead:       1 positions{angstrom}  cell{angstrom}
       H  1.88474e-01  1.04547e-01 -2.58271e-01
       H -2.18770e-01  8.70988e-02  3.32123e-01
2
# CELL(abcABC):   37.69329    37.69329    37.69329    90.00000    90.00000    90.00000  Step:         360  Bead:       1 positions{angstrom}  cell{angstrom}
       H  1.80623e-01  6.67284e-02 -2.65963e-01
       H -2.77593e-01  1.83444e-02  3.30035e-01
2
# CELL(abcABC):   37.69329    37.69329    37.69329    90.00000    90.00000    90.00000  Step:         365  Bead:       1 positions{angstrom}  cell{angstrom}
       H  1.81134e-01  2.57039e-02 -2.56726e-01
       H -3.28189e-01 -6.18312e-02  2.94703e-01
2
# CELL(abcABC):   37.69329    37.69329    37.69329    90.00000    90.00000    90.00000  Step:         370  Bead:       1 positions{angstrom}  cell{angstrom}
       H  1.86035e-01 -3.21499e-03 -2.31285e-01
       H -3.39869e-01 -1.48331e-01  2.20756e-01
2
# CELL(abcABC):   37.69329    37.69329    37.69329    90.00000    90.00000    90.00000  Step:         375  Bead:       1 positions{angstrom}  cell{angstrom}
       H  1.63024e-01  1.79213e-02 -2.80340e-01
       H -3.19745e-01 -2.04422e-01  1.47009e-01
2
# CELL(abcABC):   37.69329    37.69329    37.69329    90.00000    90.00000    90.00000  Step:         380  Bead:       1 positions{angstrom}  cell{angstrom}
       H  2.18825e-01  4.65251e-02 -3.19504e-01
       H -3.17905e-01 -2.34120e-01  1.28446e-01
2
# CELL(abcABC):   37.69329    37.69329    37.69329    90.00000    90.00000    90.00000  Step:         385  Bead:       1 positions{angstrom}  cell{angstrom}
       H  2.52798e-01  8.66281e-02 -3.17283e-01
       H -2.79213e-01 -2.34306e-01  1.36878e-01
2
# CELL(abcABC):   37.69329    37.69329    37.69329    90.00000    90.00000    90.00000  Step:         390  Bead:       1 positions{angstrom}  cell{angstrom}
       H  2.26279e-01  1.35923e-01 -3.07592e-01
       H -2.57462e-01 -2.06054e-01  9.73885e-02
2
# CELL(abcABC):   37.69329    37.69329    37.69329    90.00000    90.00000    90.00000  Step:         395  Bead:       1 positions{angstrom}  cell{angstrom}
       H  2.45725e-01  1.78473e-01 -2.53381e-01
       H -1.94235e-01 -1.38882e-01  8.74251e-02
2
# CELL(abcABC):   37.69329    37.69329    37.69329    90.00000    90.00000    90.00000  Step:         400  Bead:       1 positions{angstrom}  cell{angstrom}
       H  2.75498e-01  2.57940e-01 -2.17099e-01
       H -2.02397e-01 -9.56787e-02  1.28882e-01
2
# CELL(abcABC):   37.69329    37.69329    37.69329    90.00000    90.00000    90.00000  Step:         405  Bead:       1 positions{angstrom}  cell{angstrom}
       H  2.83165e-01  3.00060e-01 -2.19661e-01
       H -1.99044e-01 -5.87199e-02  1.73479e-01
2
# CELL(abcABC):   37.69329    37.69329    37.69329    90.00000    90.00000    90.00000  Step:         410  Bead:       1 positions{angstrom}  cell{angstrom}
       H  2.94643e-01  3.13525e-01 -2.30802e-01
       H -2.10364e-01  7.83052e-03  2.32757e-01
2
# CELL(abcABC):   37.69329    37.69329    37.69329    90.00000    90.00000    90.00000  Step:         415  Bead:       1 positions{angstrom}  cell{angstrom}
       H  2.50011e-01  3.08781e-01 -2.79574e-01
       H -1.80388e-01  1.52742e-02  2.25542e-01
2
# CELL(abcABC):   37.69329    37.69329    37.69329    90.00000    90.00000    90.00000  Step:         420  Bead:       1 positions{angstrom}  cell{angstrom}
       H  2.46006e-01  3.06919e-01 -2.70940e-01
       H -1.75650e-01  1.45133e-02  2.09048e-01
2
# CELL(abcABC):   37.69329    37.69329    37.69329    90.00000    90.00000    90.00000  Step:         425  Bead:       1 positions{angstrom}  cell{angstrom}
       H  2.94650e-01  3.45316e-01 -2.51189e-01
       H -1.61391e-01  1.96907e-03  2.16717e-01
2
# CELL(abcABC):   37.69329    37.69329    37.69329    90.00000    90.00000    90.00000  Step:         430  Bead:       1 positions{angstrom}  cell{angstrom}
       H  3.20627e-01  3.78662e-01 -2.17892e-01
       H -1.58246e-01  5.73068e-03  2.11606e-01
2
# CELL(abcABC):   37.69329    37.69329    37.69329    90.00000    90.00000    90.00000  Step:         435  Bead:       1 positions{angstrom}  cell{angstrom}
       H  3.42909e-01  4.21453e-01 -1.46027e-01
       H -1.70414e-01  6.73456e-02  2.17789e-01
2
# CELL(abcABC):   37.69329    37.69329    37.69329    90.00000    90.00000    90.00000  Step:         440  Bead:       1 positions{angstrom}  cell{angstrom}
       H  3.57674e-01  4.31619e-01 -8.62017e-02
       H -1.52391e-01  1.02667e-01  2.14111e-01
2
# CELL(abcABC):   37.69329    37.69329    37.69329    90.00000    90.00000    90.00000  Step:         445  Bead:       1 positions{angstrom}  cell{angstrom}
       H  3.89613e-01  4.24266e-01 -6.64786e-02
       H -1.74310e-01  1.48061e-01  2.38578e-01
2
# CELL(abcABC):   37.69329    37.69329    37.69329    90.00000    90.00000    90.00000  Step:         450  Bead:       1 positions{angstrom}  cell{angstrom}
       H  4.32822e-01  4.24901e-01 -5.63880e-02
       H -1.93893e-01  1.69384e-01  2.96991e-01
2
# CELL(abcABC):   37.69329    37.69329    37.69329    90.00000    90.00000    90.00000  Step:         455  Bead:       1 positions{angstrom}  cell{angstrom}
       H  4.07887e-01  4.30649e-01 -3.30513e-02
       H -1.85222e-01  1.50057e-01  3.22172e-01
2
# CELL(abcABC):   37.69329    37.69329    37.69329    90.00000    90.00000    90.00000  Step:         460  Bead:       1 positions{angstrom}  cell{angstrom}
       H  3.85189e-01  4.32100e-01  6.73728e-03
       H -1.12559e-01  1.10999e-01  3.44547e-01
2
# CELL(abcABC):   37.69329    37.69329    37.69329    90.00000    90.00000    90.00000  Step:         465  Bead:       1 positions{angstrom}  cell{angstrom}
       H  3.81622e-01  4.06618e-01 -1.87652e-04
       H -1.24205e-01  5.84060e-02  3.56010e-01
2
# CELL(abcABC):   37.69329    37.69329    37.69329    90.00000    90.00000    90.00000  Step:         470  Bead:       1 positions{angstrom}  cell{angstrom}
       H  3.43085e-01  4.13236e-01  4.15928e-03
       H -1.63444e-01 -4.43807e-03  3.48644e-01
2
# CELL(abcABC):   37.69329    37.69329    37.69329    90.00000    90.00000    90.00000  Step:         475  Bead:       1 positions{angstrom}  cell{angstrom}
       H  2.87945e-01  3.84554e-01  1.81998e-03
       H -1.53404e-01 -7.65942e-02  3.25303e-01
2
# CELL(abcABC):   37.69329    37.69329    37.69329    90.00000    90.00000    90.00000  Step:         480  Bead:       1 positions{angstrom}  cell{angstrom}
       H  2.53516e-01  3.79984e-01  1.75347e-02
       H -1.23767e-01 -1.52224e-01  3.01447e-01
2
# CELL(abcABC):   37.69329    37.69329    37.69329    90.00000    90.00000    90.00000  Step:         485  Bead:       1 positions{angstrom}  cell{angstrom}
       H  1.97990e-01  3.42297e-01  1.54012e-02
       H -1.18664e-01 -2.08202e-01  2.69623e-01
2
# CELL(abcABC):   37.69329    37.69329    37.69329    90.00000    90.00000    90.00000  Step:         490  Bead:       1 positions{angstrom}  cell{angstrom}
       H  1.47009e-01  2.98965e-01 -2.79524e-02
       H -1.19809e-01 -2.33728e-01  2.46025e-01
2
# CELL(abcABC):   37.69329    37.69329    37.69329    90.00000    90.00000    90.00000  Step:         495  Bead:       1 positions{angstrom}  cell{angstrom}
       H  1.47038e-01  2.77065e-01 -9.37298e-02
       H -1.63864e-01 -3.09992e-01  1.86617e-01
2
# CELL(abcABC):   37.69329    37.69329    37.69329    90.00000    90.00000    90.00000  Step:         500  Bead:       1 positions{angstrom}  cell{angstrom}
       H  1.92991e-01  2.68639e-01 -1.31785e-01
       H -1.81926e-01 -3.58904e-01  1.19850e-01
2
# CELL(abcABC):   37.69329    37.69329    37.69329    90.00000    90.00000    90.00000  Step:         505  Bead:       1 positions{angstrom}  cell{angstrom}
       H  2.15766e-01  2.53386e-01 -1.30068e-01
       H -1.29239e-01 -3.43225e-01  8.46554e-02
2
# CELL(abcABC):   37.69329    37.69329    37.69329    90.00000    90.00000    90.00000  Step:         510  Bead:       1 positions{angstrom}  cell{angstrom}
       H  2.15986e-01  2.78032e-01 -1.33797e-01
       H -3.17418e-02 -3.11495e-01  5.62691e-02
2
# CELL(abcABC):   37.69329    37.69329    37.69329    90.00000    90.00000    90.00000  Step:         515  Bead:       1 positions{angstrom}  cell{angstrom}
       H  2.32601e-01  3.05953e-01 -1.82186e-01
       H  3.07499e-02 -3.20970e-01  5.06819e-02
2
# CELL(abcABC):   37.69329    37.69329    37.69329    90.00000    90.00000    90.00000  Step:         520  Bead:       1 positions{angstrom}  cell{angstrom}
       H  2.43016e-01  3.55935e-01 -1.56748e-01
       H  3.97090e-02 -3.51178e-01  4.28995e-02
2
# CELL(abcABC):   37.69329    37.69329    37.69329    90.00000    90.00000    90.00000  Step:         525  Bead:       1 positions{angstrom}  cell{angstrom}
       H  2.81344e-01  3.86638e-01 -1.11016e-01
       H -1.24305e-02 -2.94814e-01 -6.33831e-03
2
# CELL(abcABC):   37.69329    37.69329    37.69329    90.00000    90.00000    90.00000  Step:         530  Bead:       1 positions{angstrom}  cell{angstrom}
       H  2.64549e-01  3.88585e-01 -6.63866e-02
       H -5.55904e-02 -2.50434e-01 -5.94975e-02
2
# CELL(abcABC):   37.69329    37.69329    37.69329    90.00000    90.00000    90.00000  Step:         535  Bead:       1 positions{angstrom}  cell{angstrom}
       H  2.46812e-01  3.94671e-01 -6.96677e-02
       H -6.92043e-02 -1.75933e-01 -7.53927e-02
2
# CELL(abcABC):   37.69329    37.69329    37.69329    90.00000    90.00000    90.00000  Step:         540  Bead:       1 positions{angstrom}  cell{angstrom}
       H  2.32867e-01  4.55259e-01 -8.14787e-02
       H -8.08051e-02 -1.40096e-01 -8.85026e-02
2
# CELL(abcABC):   37.69329    37.69329    37.69329    90.00000    90.00000    90.00000  Step:         545  Bead:       1 positions{angstrom}  cell{angstrom}
       H  2.18494e-01  4.98465e-01 -6.12784e-02
       H -1.25380e-01 -1.73380e-01 -6.63672e-02
2
# CELL(abcABC):   37.69329    37.69329    37.69329    90.00000    90.00000    90.00000  Step:         550  Bead:       1 positions{angstrom}  cell{angstrom}
       H  2.41421e-01  4.65702e-01 -5.75695e-02
       H -1.50998e-01 -1.90894e-01 -1.85635e-02
2
# CELL(abcABC):   37.69329    37.69329    37.69329    90.00000    90.00000    90.00000  Step:         555  Bead:       1 positions{angstrom}  cell{angstrom}
       H  2.73077e-01  4.09322e-01 -3.57557e-02
       H -1.36660e-01 -1.60454e-01  3.26315e-02
2
# CELL(abcABC):   37.69329    37.69329    37.69329    90.00000    90.00000    90.00000  Step:         560  Bead:       1 positions{angstrom}  cell{angstrom}
       H  3.00336e-01  3.83091e-01 -3.37109e-03
       H -1.15620e-01 -1.63157e-01  1.37859e-02
2
# CELL(abcABC):   37.69329    37.69329    37.69329    90.00000    90.00000    90.00000  Step:         565  Bead:       1 positions{angstrom}  cell{angstrom}
       H  3.14937e-01  3.81816e-01  1.82638e-02
       H -1.14494e-01 -1.85732e-01 -4.86576e-02
2
# CELL(abcABC):   37.69329    37.69329    37.69329    90.00000    90.00000    90.00000  Step:         570  Bead:       1 positions{angstrom}  cell{angstrom}
       H  2.84969e-01  3.54774e-01  1.50995e-02
       H -1.29785e-01 -2.02779e-01 -8.83098e-02
2
# CELL(abcABC):   37.69329    37.69329    37.69329    90.00000    90.00000    90.00000  Step:         575  Bead:       1 positions{angstrom}  cell{angstrom}
       H  2.30938e-01  3.50007e-01 -3.67625e-03
       H -1.87785e-01 -2.03225e-01 -1.09003e-01
2
# CELL(abcABC):   37.69329    37.69329    37.69329    90.00000    90.00000    90.00000  Step:         580  Bead:       1 positions{angstrom}  cell{angstrom}
       H  1.94699e-01  3.36788e-01 -1.91236e-02
       H -2.55176e-01 -2.17102e-01 -1.01960e-01
2
# CELL(abcABC):   37.69329    37.69329    37.69329    90.00000    90.00000    90.00000  Step:         585  Bead:       1 positions{angstrom}  cell{angstrom}