2
# CELL(abcABC):   37.69329    37.69329    37.69329    90.00000    90.00000    90.00000  Step:           0  Bead:       3 positions{angstrom}  cell{angstrom}
       H  2.68822e-01  0.00000e+00  0.00000e+00
       H -2.68822e-01  1.58753e-01  5.29177e-03
2
# CELL(abcABC):   37.69329    37.69329    37.69329    90.00000    90.00000    90.00000  Step:           5  Bead:       3 positions{angstrom}  cell{angstrom}
       H  3.40583e-01 -2.72170e-02 -3.75867e-02
       H -3.29553e-01  1.51122e-01  1.17880e-02
2
# CELL(abcABC):   37.69329    37.69329    37.69329    90.00000    90.00000    90.00000  Step:          10  Bead:       3 positions{angstrom}  cell{angstrom}
       H  4.70661e-01 -9.70812e-03 -8.53397e-02
       H -4.44614e-01  1.61508e-01 -4.77387e-03
2
# CELL(abcABC):   37.69329    37.69329    37.69329    90.00000    90.00000    90.00000  Step:          15  Bead:       3 positions{angstrom}  cell{angstrom}
       H  5.16558e-01  2.69705e-02 -1.14345e-01
       H -4.65634e-01  1.74897e-01 -1.24743e-02
2
# CELL(abcABC):   37.69329    37.69329    37.69329    90.00000    90.00000    90.00000  Step:          20  Bead:       3 positions{angstrom}  cell{angstrom}
       H  4.40345e-01  2.67549e-02 -7.79354e-02
       H -3.70855e-01  1.81477e-01 -1.13073e-02
2
# CELL(abcABC):   37.69329    37.69329    37.69329    90.00000    90.00000    90.00000  Step:          25  Bead:       3 positions{angstrom}  cell{angstrom}
       H  3.52025e-01  3.98786e-02 -3.08945e-02
       H -2.48202e-01  1.73074e-01 -1.81281e-02
2
# CELL(abcABC):   37.69329    37.69329    37.69329    90.00000    90.00000    90.00000  Step:          30  Bead:       3 positions{angstrom}  cell{angstrom}
       H  3.83229e-01  2.90751e-02 -6.43624e-03
       H -2.60478e-01  1.39562e-01 -6.39187e-02
2
# CELL(abcABC):   37.69329    37.69329    37.69329    90.00000    90.00000    90.00000  Step:          35  Bead:       3 positions{angstrom}  cell{angstrom}
       H  4.41612e-01 -4.97459e-03  4.97861e-03
       H -3.53767e-01  1.15423e-01 -1.03438e-01
2
# CELL(abcABC):   37.69329    37.69329    37.69329    90.00000    90.00000    90.00000  Step:          40  Bead:       3 positions{angstrom}  cell{angstrom}
       H  4.52704e-01 -2.49096e-02 -8.45619e-03
       H -3.75870e-01  9.61696e-02 -9.78671e-02
2
# CELL(abcABC):   37.69329    37.69329    37.69329    90.00000    90.00000    90.00000  Step:          45  Bead:       3 positions{angstrom}  cell{angstrom}
       H  4.09574e-01 -6.45262e-02 -2.61210e-02
       H -3.50448e-01  5.86621e-02 -7.13856e-02
2
# CELL(abcABC):   37.69329    37.69329    37.69329    90.00000    90.00000    90.00000  Step:          50  Bead:       3 positions{angstrom}  cell{angstrom}
       H  3.36390e-01 -1.02441e-01 -8.39182e-03
       H -2.95842e-01  4.85031e-03 -4.27687e-02
2
# CELL(abcABC):   37.69329    37.69329    37.69329    90.00000    90.00000    90.00000  Step:          55  Bead:       3 positions{angstrom}  cell{angstrom}
       H  2.88149e-01 -1.34570e-01  2.81849e-02
       H -3.38423e-01 -4.85993e-02 -3.24807e-02
2
# CELL(abcABC):   37.69329    37.69329    37.69329    90.00000    90.00000    90.00000  Step:          60  Bead:       3 positions{angstrom}  cell{angstrom}
       H  3.06925e-01 -1.62378e-01  1.74007e-02
       H -4.28693e-01 -5.05944e-02 -2.60293e-02
2
# CELL(abcABC):   37.69329    37.69329    37.69329    90.00000    90.00000    90.00000  Step:          65  Bead:       3 positions{angstrom}  cell{angstrom}
       H  3.25877e-01 -2.02021e-01 -2.46138e-02
       H -4.62389e-01 -1.77526e-02 -4.92908e-02
2
# CELL(abcABC):   37.69329    37.69329    37.69329    90.00000    90.00000    90.00000  Step:          70  Bead:       3 positions{angstrom}  cell{angstrom}
       H  2.86455e-01 -1.71616e-01 -9.74713e-03
       H -3.81162e-01 -2.38431e-02 -7.32268e-02
2
# CELL(abcABC):   37.69329    37.69329    37.69329    90.00000    90.00000    90.00000  Step:          75  Bead:       3 positions{angstrom}  cell{angstrom}
       H  2.81302e-01 -1.40893e-01  3.24350e-02
       H -3.11116e-01 -6.25121e-03 -9.52804e-02
2
# CELL(abcABC):   37.69329    37.69329    37.69329    90.00000    90.00000    90.00000  Step:          80  Bead:       3 positions{angstrom}  cell{angstrom}
       H  3.16537e-01 -1.31091e-01  5.32765e-02
       H -3.34075e-01  1.68003e-02 -1.21687e-01
2
# CELL(abcABC):   37.69329    37.69329    37.69329    90.00000    90.00000    90.00000  Step:          85  Bead:       3 positions{angstrom}  cell{angstrom}
       H  3.82235e-01 -1.46437e-01  3.60691e-02
       H -3.94134e-01  4.59619e-02 -1.14345e-01
2
# CELL(abcABC):   37.69329    37.69329    37.69329    90.00000    90.00000    90.00000  Step:          90  Bead:       3 positions{angstrom}  cell{angstrom}
       H  4.10328e-01 -1.57023e-01  3.14317e-02
       H -4.14969e-01  4.28546e-02 -6.56918e-02
2
# CELL(abcABC):   37.69329    37.69329    37.69329    90.00000    90.00000    90.00000  Step:          95  Bead:       3 positions{angstrom}  cell{angstrom}
       H  3.98879e-01 -1.50969e-01  4.23801e-02
       H -3.59284e-01 -3.11945e-03 -6.11563e-02
2
# CELL(abcABC):   37.69329    37.69329    37.69329    90.00000    90.00000    90.00000  Step:         100  Bead:       3 positions{angstrom}  cell{angstrom}
       H  3.65534e-01 -7.02729e-02  3.57643e-02
       H -2.85573e-01 -4.26439e-02 -4.17808e-02
2
# CELL(abcABC):   37.69329    37.69329    37.69329    90.00000    90.00000    90.00000  Step:         105  Bead:       3 positions{angstrom}  cell{angstrom}
       H  3.75071e-01  6.76831e-03  5.16152e-02
       H -2.63068e-01 -5.56836e-02 -2.99528e-02
2
# CELL(abcABC):   37.69329    37.69329    37.69329    90.00000    90.00000    90.00000  Step:         110  Bead:       3 positions{angstrom}  cell{angstrom}
       H  4.14283e-01  9.23175e-02  5.79067e-02
       H -3.45909e-01 -4.98589e-02  1.50737e-03
2
# CELL(abcABC):   37.69329    37.69329    37.69329    90.00000    90.00000    90.00000  Step:         115  Bead:       3 positions{angstrom}  cell{angstrom}
       H  4.40708e-01  1.60983e-01  4.54836e-02
       H -3.96038e-01 -7.38175e-02  6.20228e-02
2
# CELL(abcABC):   37.69329    37.69329    37.69329    90.00000    90.00000    90.00000  Step:         120  Bead:       3 positions{angstrom}  cell{angstrom}
       H  4.07143e-01  1.63700e-01  5.24950e-02
       H -3.83574e-01 -2.87803e-03  1.13647e-01
2
# CELL(abcABC):   37.69329    37.69329    37.69329    90.00000    90.00000    90.00000  Step:         125  Bead:       3 positions{angstrom}  cell{angstrom}
       H  3.58902e-01  1.47976e-01  7.49753e-02
       H -2.94846e-01  8.10769e-02  1.51129e-01
2
# CELL(abcABC):   37.69329    37.69329    37.69329    90.00000    90.00000    90.00000  Step:         130  Bead:       3 positions{angstrom}  cell{angstrom}
       H  3.26740e-01  1.34141e-01  9.21149e-02
       H -2.53075e-01  1.16435e-01  1.33811e-01
2
# CELL(abcABC):   37.69329    37.69329    37.69329    90.00000    90.00000    90.00000  Step:         135  Bead:       3 positions{angstrom}  cell{angstrom}
       H  3.73020e-01  1.48567e-01  3.34001e-02
       H -3.53317e-01  9.42710e-02  1.61560e-01
2
# CELL(abcABC):   37.69329    37.69329    37.69329    90.00000    90.00000    90.00000  Step:         140  Bead:       3 positions{angstrom}  cell{angstrom}
       H  4.24413e-01  1.59632e-01 -1.05853e-02
       H -4.25811e-01  1.15833e-01  1.73858e-01
2
# CELL(abcABC):   37.69329    37.69329    37.69329    90.00000    90.00000    90.00000  Step:         145  Bead:       3 positions{angstrom}  cell{angstrom}
       H  3.78126e-01  1.21810e-01 -5.11700e-02
       H -3.86276e-01  1.74102e-01  1.57670e-01
2
# CELL(abcABC):   37.69329    37.69329    37.69329    90.00000    90.00000    90.00000  Step:         150  Bead:       3 positions{angstrom}  cell{angstrom}
       H  2.94793e-01  1.27427e-01 -4.82163e-02
       H -3.04653e-01  2.02755e-01  1.40285e-01
2
# CELL(abcABC):   37.69329    37.69329    37.69329    90.00000    90.00000    90.00000  Step:         155  Bead:       3 positions{angstrom}  cell{angstrom}
       H  2.98480e-01  1.71872e-01 -6.36889e-02
       H -3.04383e-01  2.41090e-01  1.63737e-01
2
# CELL(abcABC):   37.69329    37.69329    37.69329    90.00000    90.00000    90.00000  Step:         160  Bead:       3 positions{angstrom}  cell{angstrom}
       H  3.59750e-01  2.18235e-01 -1.10938e-01
       H -3.68026e-01  2.44585e-01  2.27128e-01
2
# CELL(abcABC):   37.69329    37.69329    37.69329    90.00000    90.00000    90.00000  Step:         165  Bead:       3 positions{angstrom}  cell{angstrom}
       H  3.41585e-01  2.37459e-01 -2.03473e-01
       H -3.61180e-01  2.42841e-01  2.39028e-01
2
# CELL(abcABC):   37.69329    37.69329    37.69329    90.00000    90.00000    90.00000  Step:         170  Bead:       3 positions{angstrom}  cell{angstrom}
       H  2.82555e-01  2.90779e-01 -2.24173e-01
       H -3.22801e-01  1.86115e-01  2.22299e-01
2
# CELL(abcABC):   37.69329    37.69329    37.69329    90.00000    90.00000    90.00000  Step:         175  Bead:       3 positions{angstrom}  cell{angstrom}
       H  1.72782e-01  3.68767e-01 -1.92406e-01
       H -2.23302e-01  1.43685e-01  2.13199e-01
2
# CELL(abcABC):   37.69329    37.69329    37.69329    90.00000    90.00000    90.00000  Step:         180  Bead:       3 positions{angstrom}  cell{angstrom}
       H  1.16907e-01  4.25982e-01 -2.14596e-01
       H -2.11911e-01  6.29155e-02  2.56844e-01
2
# CELL(abcABC):   37.69329    37.69329    37.69329    90.00000    90.00000    90.00000  Step:         185  Bead:       3 positions{angstrom}  cell{angstrom}
       H  9.04567e-02  4.33140e-01 -2.78742e-01
       H -2.19020e-01  2.18075e-02  3.40712e-01
2
# CELL(abcABC):   37.69329    37.69329    37.69329    90.00000    90.00000    90.00000  Step:         190  Bead:       3 positions{angstrom}  cell{angstrom}
       H  1.27006e-01  4.07512e-01 -3.30207e-01
       H -2.20074e-01 -4.47716e-03  3.86133e-01
2
# CELL(abcABC):   37.69329    37.69329    37.69329    90.00000    90.00000    90.00000  Step:         195  Bead:       3 positions{angstrom}  cell{angstrom}
       H  1.20101e-01  3.15287e-01 -3.40288e-01
       H -1.92738e-01 -4.09464e-02  3.53537e-01
2
# CELL(abcABC):   37.69329    37.69329    37.69329    90.00000    90.00000    90.00000  Step:         200  Bead:       3 positions{angstrom}  cell{angstrom}
       H  8.17200e-02  1.84717e-01 -3.20552e-01
       H -9.87473e-02 -3.40269e-02  2.70811e-01
2
# CELL(abcABC):   37.69329    37.69329    37.69329    90.00000    90.00000    90.00000  Step:         205  Bead:       3 positions{angstrom}  cell{angstrom}
       H  7.17491e-02  1.06251e-01 -3.45971e-01
       H -5.91050e-02 -3.64531e-02  2.88437e-01
2
# CELL(abcABC):   37.69329    37.69329    37.69329    90.00000    90.00000    90.00000  Step:         210  Bead:       3 positions{angstrom}  cell{angstrom}
       H  7.72880e-02  1.13264e-01 -4.06639e-01
       H -2.57295e-02 -4.91316e-02  3.43793e-01
2
# CELL(abcABC):   37.69329    37.69329    37.69329    90.00000    90.00000    90.00000  Step:         215  Bead:       3 positions{angstrom}  cell{angstrom}
       H  8.78971e-02  1.47740e-01 -4.39380e-01
       H -2.45007e-03 -5.32634e-02  3.26420e-01
2
# CELL(abcABC):   37.69329    37.69329    37.69329    90.00000    90.00000    90.00000  Step:         220  Bead:       3 positions{angstrom}  cell{angstrom}
       H  1.25651e-01  1.30246e-01 -4.50393e-01
       H  2.53685e-02 -2.76131e-02  2.86220e-01
2
# CELL(abcABC):   37.69329    37.69329    37.69329    90.00000    90.00000    90.00000  Step:         225  Bead:       3 positions{angstrom}  cell{angstrom}
       H  1.30497e-01  8.58944e-02 -4.21128e-01
       H  6.36417e-02  2.32007e-03  2.25703e-01
2
# CELL(abcABC):   37.69329    37.69329    37.69329    90.00000    90.00000    90.00000  Step:         230  Bead:       3 positions{angstrom}  cell{angstrom}
       H  1.35405e-01  8.28037e-02 -4.08007e-01
       H  6.51382e-02  2.65792e-02  2.44559e-01
2
# CELL(abcABC):   37.69329    37.69329    37.69329    90.00000    90.00000    90.00000  Step:         235  Bead:       3 positions{angstrom}  cell{angstrom}
       H  1.30688e-01  1.24295e-01 -3.91460e-01
       H  7.05293e-02  2.81159e-02  3.33283e-01
2
# CELL(abcABC):   37.69329    37.69329    37.69329    90.00000    90.00000    90.00000  Step:         240  Bead:       3 positions{angstrom}  cell{angstrom}
       H  9.25812e-02  1.53320e-01 -3.92321e-01
       H  8.08845e-02  5.45675e-02  4.10123e-01
2
# CELL(abcABC):   37.69329    37.69329    37.69329    90.00000    90.00000    90.00000  Step:         245  Bead:       3 positions{angstrom}  cell{angstrom}
       H  7.14988e-02  2.12251e-01 -3.20089e-01
       H  1.02104e-01  3.44273e-02  4.52220e-01
2
# CELL(abcABC):   37.69329    37.69329    37.69329    90.00000    90.00000    90.00000  Step:         250  Bead:       3 positions{angstrom}  cell{angstrom}
       H  8.14399e-02  2.45879e-01 -2.17109e-01
       H  1.21412e-01  1.49199e-02  3.81332e-01
2
# CELL(abcABC):   37.69329    37.69329    37.69329    90.00000    90.00000    90.00000  Step:         255  Bead:       3 positions{angstrom}  cell{angstrom}
       H  6.93109e-02  2.53432e-01 -2.29175e-01
       H  1.65111e-01 -2.04546e-02  3.61193e-01
2
# CELL(abcABC):   37.69329    37.69329    37.69329    90.00000    90.00000    90.00000  Step:         260  Bead:       3 positions{angstrom}  cell{angstrom}
       H  7.11052e-02  2.99599e-01 -3.25475e-01
       H  2.06133e-01 -4.11999e-02  3.97884e-01
2
# CELL(abcABC):   37.69329    37.69329    37.69329    90.00000    90.00000    90.00000  Step:         265  Bead:       3 positions{angstrom}  cell{angstrom}
       H  1.24201e-01  2.80876e-01 -3.61968e-01
       H  2.36698e-01 -6.44665e-02  3.71504e-01
2
# CELL(abcABC):   37.69329    37.69329    37.69329    90.00000    90.00000    90.00000  Step:         270  Bead:       3 positions{angstrom}  cell{angstrom}
       H  1.51712e-01  2.22869e-01 -3.72517e-01
       H  2.40645e-01 -3.93117e-02  3.00254e-01
2
# CELL(abcABC):   37.69329    37.69329    37.69329    90.00000    90.00000    90.00000  Step:         275  Bead:       3 positions{angstrom}  cell{angstrom}
       H  1.72782e-01  2.16694e-01 -3.62323e-01
       H  2.32787e-01 -6.70736e-03  2.50817e-01
2
# CELL(abcABC):   37.69329    37.69329    37.69329    90.00000    90.00000    90.00000  Step:         280  Bead:       3 positions{angstrom}  cell{angstrom}
       H  1.76134e-01  2.18122e-01 -4.04822e-01
       H  2.31831e-01  3.02472e-04  2.49846e-01
2
# CELL(abcABC):   37.69329    37.69329    37.69329    90.00000    90.00000    90.00000  Step:         285  Bead:       3 positions{angstrom}  cell{angstrom}
       H  1.68809e-01  2.18730e-01 -4.45710e-01
       H  1.96086e-01 -6.66066e-03  2.64928e-01
2
# CELL(abcABC):   37.69329    37.69329    37.69329    90.00000    90.00000    90.00000  Step:         290  Bead:       3 positions{angstrom}  cell{angstrom}
       H  2.17023e-01  2.59754e-01 -4.60741e-01
       H  1.68705e-01  1.64714e-02  2.75094e-01
2
# CELL(abcABC):   37.69329    37.69329    37.69329    90.00000    90.00000    90.00000  Step:         295  Bead:       3 positions{angstrom}  cell{angstrom}
       H  2.44566e-01  2.76548e-01 -4.19829e-01
       H  1.41579e-01  3.05295e-02  2.34601e-01
2
# CELL(abcABC):   37.69329    37.69329    37.69329    90.00000    90.00000    90.00000  Step:         300  Bead:       3 positions{angstrom}  cell{angstrom}
       H  2.78119e-01  2.98116e-01 -4.07013e-01
       H  1.07985e-01  1.61374e-02  1.90967e-01
2
# CELL(abcABC):   37.69329    37.69329    37.69329    90.00000    90.00000    90.00000  Step:         305  Bead:       3 positions{angstrom}  cell{angstrom}
       H  2.71152e-01  2.92514e-01 -4.04413e-01
       H  8.97762e-02  1.74929e-02  1.94962e-01
2
# CELL(abcABC):   37.69329    37.69329    37.69329    90.00000    90.00000    90.00000  Step:         310  Bead:       3 positions{angstrom}  cell{angstrom}
       H  2.47449e-01  3.00835e-01 -4.38965e-01
       H  9.97116e-02  5.41573e-03  1.89182e-01
2
# CELL(abcABC):   37.69329    37.69329    37.69329    90.00000    90.00000    90.00000  Step:         315  Bead:       3 positions{angstrom}  cell{angstrom}
       H  2.29266e-01  3.10495e-01 -4.56668e-01
       H  9.20546e-02 -8.37247e-05  2.13260e-01
2
# CELL(abcABC):   37.69329    37.69329    37.69329    90.00000    90.00000    90.00000  Step:         320  Bead:       3 positions{angstrom}  cell{angstrom}
       H  1.82275e-01  2.74341e-01 -4.59030e-01
       H  1.01710e-01  4.01907e-02  2.34512e-01
2
# CELL(abcABC):   37.69329    37.69329    37.69329    90.00000    90.00000    90.00000  Step:         325  Bead:       3 positions{angstrom}  cell{angstrom}
       H  1.13320e-01  2.32029e-01 -4.12505e-01
       H  1.16185e-01  7.34721e-02  2.84428e-01
2
# CELL(abcABC):   37.69329    37.69329    37.69329    90.00000    90.00000    90.00000  Step:         330  Bead:       3 positions{angstrom}  cell{angstrom}
       H  3.52427e-02  2.12515e-01 -3.91474e-01
       H  1.40080e-01  9.36996e-02  3.19085e-01
2
# CELL(abcABC):   37.69329    37.69329    37.69329    90.00000    90.00000    90.00000  Step:         335  Bead:       3 positions{angstrom}  cell{angstrom}
       H -4.84799e-02  1.91905e-01 -3.40131e-01
       H  1.62807e-01  7.01740e-02  3.17892e-01
2
# CELL(abcABC):   37.69329    37.69329    37.69329    90.00000    90.00000    90.00000  Step:         340  Bead:       3 positions{angstrom}  cell{angstrom}
       H -6.86319e-02  1.52912e-01 -3.30390e-01
       H  1.13035e-01  3.51300e-02  3.54843e-01
2
# CELL(abcABC):   37.69329    37.69329    37.69329    90.00000    90.00000    90.00000  Step:         345  Bead:       3 positions{angstrom}  cell{angstrom}
       H -1.09495e-01  1.28519e-01 -3.22008e-01
       H  6.68773e-02 -3.22316e-02  3.90777e-01
2
# CELL(abcABC):   37.69329    37.69329    37.69329    90.00000    90.00000    90.00000  Step:         350  Bead:       3 positions{angstrom}  cell{angstrom}
       H -1.03321e-01  1.24975e-01 -2.50174e-01
       H  8.48523e-03 -1.16380e-01  3.99685e-01
2
# CELL(abcABC):   37.69329    37.69329    37.69329    90.00000    90.00000    90.00000  Step:         355  Bead:       3 positions{angstrom}  cell{angstrom}
       H -6.41832e-02  1.54029e-01 -2.09597e-01
       H -7.61730e-02 -1.53125e-01  3.73022e-01
2
# CELL(abcABC):   37.69329    37.69329    37.69329    90.00000    90.00000    90.00000  Step:         360  Bead:       3 positions{angstrom}  cell{angstrom}
       H -6.56586e-02  1.80176e-01 -2.22354e-01
       H -1.19152e-01 -1.78385e-01  3.98197e-01
2
# CELL(abcABC):   37.69329    37.69329    37.69329    90.00000    90.00000    90.00000  Step:         365  Bead:       3 positions{angstrom}  cell{angstrom}
       H -4.96120e-02  2.43343e-01 -2.04347e-01
       H -1.36892e-01 -1.70319e-01  4.57823e-01
2
# CELL(abcABC):   37.69329    37.69329    37.69329    90.00000    90.00000    90.00000  Step:         370  Bead:       3 positions{angstrom}  cell{angstrom}
       H -3.52233e-02  2.73309e-01 -1.42874e-01
       H -1.82565e-01 -1.21889e-01  5.04904e-01
2
# CELL(abcABC):   37.69329    37.69329    37.69329    90.00000    90.00000    90.00000  Step:         375  Bead:       3 positions{angstrom}  cell{angstrom}
       H -2.78381e-03  3.28787e-01 -5.41796e-02
       H -2.09067e-01 -6.23994e-02  5.38302e-01
2
# CELL(abcABC):   37.69329    37.69329    37.69329    90.00000    90.00000    90.00000  Step:         380  Bead:       3 positions{angstrom}  cell{angstrom}
       H  4.90220e-03  3.43240e-01 -2.68356e-02
       H -1.99248e-01 -3.52174e-02  5.21861e-01
2
# CELL(abcABC):   37.69329    37.69329    37.69329    90.00000    90.00000    90.00000  Step:         385  Bead:       3 positions{angstrom}  cell{angstrom}
       H  3.81207e-02  3.56189e-01 -3.18471e-02
       H -2.10386e-01 -1.46095e-02  4.89980e-01
2
# CELL(abcABC):   37.69329    37.69329    37.69329    90.00000    90.00000    90.00000  Step:         390  Bead:       3 positions{angstrom}  cell{angstrom}
       H  9.80173e-02  3.64854e-01 -7.43242e-02
       H -2.18236e-01 -2.13112e-02  5.06834e-01
2
# CELL(abcABC):   37.69329    37.69329    37.69329    90.00000    90.00000    90.00000  Step:         395  Bead:       3 positions{angstrom}  cell{angstrom}
       H  1.44204e-01  3.44679e-01 -8.36893e-02
       H -2.30800e-01 -1.80732e-02  4.98836e-01
2
# CELL(abcABC):   37.69329    37.69329    37.69329    90.00000    90.00000    90.00000  Step:         400  Bead:       3 positions{angstrom}  cell{angstrom}
       H  1.67762e-01  2.78903e-01 -7.12336e-02
       H -2.13001e-01 -4.48152e-02  4.22886e-01
2
# CELL(abcABC):   37.69329    37.69329    37.69329    90.00000    90.00000    90.00000  Step:         405  Bead:       3 positions{angstrom}  cell{angstrom}
       H  1.62339e-01  2.63733e-01 -7.07602e-02
       H -1.89534e-01 -8.85861e-02  3.75183e-01
2
# CELL(abcABC):   37.69329    37.69329    37.69329    90.00000    90.00000    90.00000  Step:         410  Bead:       3 positions{angstrom}  cell{angstrom}
       H  2.19705e-01  2.52779e-01 -7.38654e-02
       H -1.96707e-01 -1.30100e-01  3.53597e-01
2
# CELL(abcABC):   37.69329    37.69329    37.69329    90.00000    90.00000    90.00000  Step:         415  Bead:       3 positions{angstrom}  cell{angstrom}
       H  3.03602e-01  2.13830e-01 -7.60637e-02
       H -2.17705e-01 -1.42704e-01  3.27357e-01
2
# CELL(abcABC):   37.69329    37.69329    37.69329    90.00000    90.00000    90.00000  Step:         420  Bead:       3 positions{angstrom}  cell{angstrom}
       H  3.20119e-01  1.79053e-01 -6.56557e-02
       H -2.11371e-01 -1.73936e-01  3.02685e-01
2
# CELL(abcABC):   37.69329    37.69329    37.69329    90.00000    90.00000    90.00000  Step:         425  Bead:       3 positions{angstrom}  cell{angstrom}
       H  2.89661e-01  1.47544e-01 -9.18614e-02
       H -1.94704e-01 -2.01413e-01  2.37053e-01
2
# CELL(abcABC):   37.69329    37.69329    37.69329    90.00000    90.00000    90.00000  Step:         430  Bead:       3 positions{angstrom}  cell{angstrom}
       H  3.12186e-01  8.64484e-02 -1.57128e-01
       H -1.87406e-01 -2.38099e-01  1.97617e-01
2
# CELL(abcABC):   37.69329    37.69329    37.69329    90.00000    90.00000    90.00000  Step:         435  Bead:       3 positions{angstrom}  cell{angstrom}
       H  3.09417e-01  5.95861e-02 -2.14979e-01
       H -2.09576e-01 -2.92111e-01  1.97441e-01
2
# CELL(abcABC):   37.69329    37.69329    37.69329    90.00000    90.00000    90.00000  Step:         440  Bead:       3 positions{angstrom}  cell{angstrom}
       H  2.81895e-01  4.69453e-02 -2.44051e-01
       H -2.15618e-01 -3.45588e-01  1.56832e-01
2
# CELL(abcABC):   37.69329    37.69329    37.69329    90.00000    90.00000    90.00000  Step:         445  Bead:       3 positions{angstrom}  cell{angstrom}
       H  2.58536e-01  3.71430e-02 -2.22919e-01
       H -1.87821e-01 -4.05106e-01  8.91829e-02
2
# CELL(abcABC):   37.69329    37.69329    37.69329    90.00000    90.00000    90.00000  Step:         450  Bead:       3 positions{angstrom}  cell{angstrom}
       H  2.22374e-01  4.59462e-02 -1.74329e-01
       H -2.20714e-01 -4.48892e-01  1.76493e-02
2
# CELL(abcABC):   37.69329    37.69329    37.69329    90.00000    90.00000    90.00000  Step:         455  Bead:       3 positions{angstrom}  cell{angstrom}
       H  2.35559e-01  5.43927e-02 -1.11770e-01
       H -2.70982e-01 -4.51094e-01  2.02993e-02
2
# CELL(abcABC):   37.69329    37.69329    37.69329    90.00000    90.00000    90.00000  Step:         460  Bead:       3 positions{angstrom}  cell{angstrom}
       H  2.59398e-01  8.52894e-02 -1.19184e-01
       H -2.95524e-01 -3.92043e-01  3.87327e-02
2
# CELL(abcABC):   37.69329    37.69329    37.69329    90.00000    90.00000    90.00000  Step:         465  Bead:       3 positions{angstrom}  cell{angstrom}
       H  3.18610e-01  1.00756e-01 -1.18431e-01
       H -3.20281e-01 -3.11882e-01  8.06345e-02
2
# CELL(abcABC):   37.69329    37.69329    37.69329    90.00000    90.00000    90.00000  Step:         470  Bead:       3 positions{angstrom}  cell{angstrom}
       H  3.47444e-01  1.22116e-01 -1.07026e-01
       H -3.32336e-01 -2.14344e-01  1.21760e-01
2
# CELL(abcABC):   37.69329    37.69329    37.69329    90.00000    90.00000    90.00000  Step:         475  Bead:       3 positions{angstrom}  cell{angstrom}
       H  3.48955e-01  1.01481e-01 -7.02573e-02
       H -2.96190e-01 -1.17043e-01  1.03335e-01
2
# CELL(abcABC):   37.69329    37.69329    37.69329    90.00000    90.00000    90.00000  Step:         480  Bead:       3 positions{angstrom}  cell{angstrom}
       H  3.45783e-01  1.15785e-01 -3.69901e-02
       H -2.42564e-01 -4.90090e-02  7.22192e-02
2
# CELL(abcABC):   37.69329    37.69329    37.69329    90.00000    90.00000    90.00000  Step:         485  Bead:       3 positions{angstrom}  cell{angstrom}
       H  4.31995e-01  1.45355e-01 -1.92016e-02
       H -2.79710e-01 -4.67762e-02  1.09508e-01
2
# CELL(abcABC):   37.69329    37.69329    37.69329    90.00000    90.00000    90.00000  Step:         490  Bead:       3 positions{angstrom}  cell{angstrom}
       H  4.60691e-01  1.81410e-01  1.69061e-03
       H -2.90508e-01 -7.18443e-02  1.14527e-01
2
# CELL(abcABC):   37.69329    37.69329    37.69329    90.00000    90.00000    90.00000  Step:         495  Bead:       3 positions{angstrom}  cell{angstrom}
       H  3.95921e-01  2.11045e-01 -7.18383e-03
       H -2.88061e-01 -6.04394e-02  1.10949e-01
2
# CELL(abcABC):   37.69329    37.69329    37.69329    90.00000    90.00000    90.00000  Step:         500  Bead:       3 positions{angstrom}  cell{angstrom}
       H  3.14308e-01  2.49393e-01 -1.78354e-02
       H -3.01066e-01 -4.30181e-02  9.75220e-02
2
# CELL(abcABC):   37.69329    37.69329    37.69329    90.00000    90.00000    90.00000  Step:         505  Bead:       3 positions{angstrom}  cell{angstrom}
       H  2.28422e-01  3.00138e-01 -5.84870e-03
       H -2.87740e-01 -4.83901e-02  8.81446e-02
2
# CELL(abcABC):   37.69329    37.69329    37.69329    90.00000    90.00000    90.00000  Step:         510  Bead:       3 positions{angstrom}  cell{angstrom}
       H  1.86459e-01  3.82413e-01 -1.32301e-03
       H -3.61398e-01 -1.18235e-01  7.84235e-02
2
# CELL(abcABC):   37.69329    37.69329    37.69329    90.00000    90.00000    90.00000  Step:         515  Bead:       3 positions{angstrom}  cell{angstrom}
       H  1.43001e-01  4.11581e-01  2.25446e-02
       H -4.21419e-01 -1.76005e-01  2.74933e-02
2
# CELL(abcABC):   37.69329    37.69329    37.69329    90.00000    90.00000    90.00000  Step:         520  Bead:       3 positions{angstrom}  cell{angstrom}
       H  1.09757e-01  3.83462e-01 -5.52966e-03
       H -3.98416e-01 -1.83818e-01  2.54179e-03
2
# CELL(abcABC):   37.69329    37.69329    37.69329    90.00000    90.00000    90.00000  Step:         525  Bead:       3 positions{angstrom}  cell{angstrom}
       H  9.87055e-02  3.64437e-01 -2.90891e-02
       H -3.11864e-01 -1.34505e-01  1.36994e-02
2
# CELL(abcABC):   37.69329    37.69329    37.69329    90.00000    90.00000    90.00000  Step:         530  Bead:       3 positions{angstrom}  cell{angstrom}
       H  1.67261e-01  3.44009e-01 -5.31068e-02
       H -2.99741e-01 -1.60387e-01  5.07112e-02
2
# CELL(abcABC):   37.69329    37.69329    37.69329    90.00000    90.00000    90.00000  Step:         535  Bead:       3 positions{angstrom}  cell{angstrom}
       H  2.38044e-01  3.13318e-01 -8.18444e-02
       H -3.29806e-01 -1.84689e-01  5.44804e-02
2
# CELL(abcABC):   37.69329    37.69329    37.69329    90.00000    90.00000    90.00000  Step:         540  Bead:       3 positions{angstrom}  cell{angstrom}
       H  2.45398e-01  2.67888e-01 -4.16069e-02
       H -3.23517e-01 -1.84096e-01  2.09252e-02
2
# CELL(abcABC):   37.69329    37.69329    37.69329    90.00000    90.00000    90.00000  Step:         545  Bead:       3 positions{angstrom}  cell{angstrom}
       H  2.59515e-01  2.54854e-01 -2.38331e-02
       H -3.23402e-01 -1.76095e-01 -1.01980e-02
2
# CELL(abcABC):   37.69329    37.69329    37.69329    90.00000    90.00000    90.00000  Step:         550  Bead:       3 positions{angstrom}  cell{angstrom}
       H  2.86315e-01  2.47907e-01 -1.18600e-02
       H -3.05901e-01 -1.44039e-01  1.03399e-02
2
# CELL(abcABC):   37.69329    37.69329    37.69329    90.00000    90.00000    90.00000  Step:         555  Bead:       3 positions{angstrom}  cell{angstrom}
       H  2.89925e-01  2.44276e-01 -3.73041e-02
       H -3.35805e-01 -1.27201e-01 -5.79633e-04
2
# CELL(abcABC):   37.69329    37.69329    37.69329    90.00000    90.00000    90.00000  Step:         560  Bead:       3 positions{angstrom}  cell{angstrom}
       H  2.88302e-01  2.69892e-01 -8.71098e-04
       H -3.34222e-01 -1.37185e-01 -2.18495e-02
2
# CELL(abcABC):   37.69329    37.69329    37.69329    90.00000    90.00000    90.00000  Step:         565  Bead:       3 positions{angstrom}  cell{angstrom}
       H  2.56741e-01  3.14265e-01 -3.29011e-03
       H -3.17116e-01 -1.37425e-01  2.28071e-02
2
# CELL(abcABC):   37.69329    37.69329    37.69329    90.00000    90.00000    90.00000  Step:         570  Bead:       3 positions{angstrom}  cell{angstrom}
       H  2.34435e-01  3.56636e-01 -2.59335e-02
       H -2.95204e-01 -1.54478e-01  1.86287e-02
2
# CELL(abcABC):   37.69329    37.69329    37.69329    90.00000    90.00000    90.00000  Step:         575  Bead:       3 positions{angstrom}  cell{angstrom}
       H  2.35550e-01  3.96914e-01 -2.15934e-02
       H -2.55546e-01 -1.37953e-01 -1.10475e-02
2
# CELL(abcABC):   37.69329    37.69329    37.69329    90.00000    90.00000    90.00000  Step:         580  Bead:       3 positions{angstrom}  cell{angstrom}
       H  2.10660e-01  3.84338e-01 -1.03982e-02
       H -2.28569e-01 -1.25287e-01 -3.58834e-02
2
# CELL(abcABC):   37.69329    37.69329    37.69329    90.00000    90.00000    90.00000  Step:         585  Bead:       3 positions{angstrom}  cell{angstrom}