2
# CELL(abcABC):   37.69329    37.69329    37.69329    90.00000    90.00000    90.00000  Step:           0  Bead:       2 forces{piconewton}  cell{angstrom}
       H  2.13084e+04 -6.29184e+03 -2.09728e+02
       H -2.13084e+04  6.29184e+03  2.09728e+02
2
# CELL(abcABC):   37.69329    37.69329    37.69329    90.00000    90.00000    90.00000  Step:           5  Bead:       2 forces{piconewton}  cell{angstrom}
       H -3.61275e+02  6.51389e+01  4.60044e-01
       H  3.61275e+02 -6.51389e+01 -4.60044e-01
2
# CELL(abcABC):   37.69329    37.69329    37.69329    90.00000    90.00000    90.00000  Step:          10  Bead:       2 forces{piconewton}  cell{angstrom}
       H -9.24924e+03  1.89296e+03  2.69177e+02
       H  9.24924e+03 -1.89296e+03 -2.69177e+02
2
# CELL(abcABC):   37.69329    37.69329    37.69329    90.00000    90.00000    90.00000  Step:          15  Bead:       2 forces{piconewton}  cell{angstrom}
       H -7.56811e+03  1.59598e+03  2.71212e+01
       H  7.56811e+03 -1.59598e+03 -2.71212e+01
2
# CELL(abcABC):   37.69329    37.69329    37.69329    90.00000    90.00000    90.00000  Step:          20  Bead:       2 forces{piconewton}  cell{angstrom}
       H  2.02800e+03 -1.34905e+02 -2.98324e+01
       H -2.02800e+03  1.34905e+02  2.98324e+01
2
# CELL(abcABC):   37.69329    37.69329    37.69329    90.00000    90.00000    90.00000  Step:          25  Bead:       2 forces{piconewton}  cell{angstrom}
       H  2.43051e+04  1.67175e+03  4.28749e+02
       H -2.43051e+04 -1.67175e+03 -4.28749e+02
2
# CELL(abcABC):   37.69329    37.69329    37.69329    90.00000    90.00000    90.00000  Step:          30  Bead:       2 forces{piconewton}  cell{angstrom}
       H  5.18910e+03  5.82992e+02 -9.76420e+01
       H -5.18910e+03 -5.82992e+02  9.76420e+01
2
# CELL(abcABC):   37.69329    37.69329    37.69329    90.00000    90.00000    90.00000  Step:          35  Bead:       2 forces{piconewton}  cell{angstrom}
       H -5.46038e+03 -1.00229e+02  2.60214e+02
       H  5.46038e+03  1.00229e+02 -2.60214e+02
2
# CELL(abcABC):   37.69329    37.69329    37.69329    90.00000    90.00000    90.00000  Step:          40  Bead:       2 forces{piconewton}  cell{angstrom}
       H -8.16917e+03  6.02524e+02  4.88398e+02
       H  8.16917e+03 -6.02524e+02 -4.88398e+02
2
# CELL(abcABC):   37.69329    37.69329    37.69329    90.00000    90.00000    90.00000  Step:          45  Bead:       2 forces{piconewton}  cell{angstrom}
       H -4.18605e+03  6.55274e+02  3.31118e+02
       H  4.18605e+03 -6.55274e+02 -3.31118e+02
2
# CELL(abcABC):   37.69329    37.69329    37.69329    90.00000    90.00000    90.00000  Step:          50  Bead:       2 forces{piconewton}  cell{angstrom}
       H  1.66813e+04 -3.70157e+03 -3.46941e+02
       H -1.66813e+04  3.70157e+03  3.46941e+02
2
# CELL(abcABC):   37.69329    37.69329    37.69329    90.00000    90.00000    90.00000  Step:          55  Bead:       2 forces{piconewton}  cell{angstrom}
       H  8.00033e+03 -2.12146e+03 -1.36880e+03
       H -8.00033e+03  2.12146e+03  1.36880e+03
2
# CELL(abcABC):   37.69329    37.69329    37.69329    90.00000    90.00000    90.00000  Step:          60  Bead:       2 forces{piconewton}  cell{angstrom}
       H -6.50590e+03  2.06041e+03  1.81341e+03
       H  6.50590e+03 -2.06041e+03 -1.81341e+03
2
# CELL(abcABC):   37.69329    37.69329    37.69329    90.00000    90.00000    90.00000  Step:          65  Bead:       2 forces{piconewton}  cell{angstrom}
       H -9.47724e+03  2.85719e+03  3.03021e+03
       H  9.47724e+03 -2.85719e+03 -3.03021e+03
2
# CELL(abcABC):   37.69329    37.69329    37.69329    90.00000    90.00000    90.00000  Step:          70  Bead:       2 forces{piconewton}  cell{angstrom}
       H -6.70999e+03  2.06709e+03  2.62679e+03
       H  6.70999e+03 -2.06709e+03 -2.62679e+03
2
# CELL(abcABC):   37.69329    37.69329    37.69329    90.00000    90.00000    90.00000  Step:          75  Bead:       2 forces{piconewton}  cell{angstrom}
       H  1.13669e+04 -3.31446e+03 -5.58339e+03
       H -1.13669e+04  3.31446e+03  5.58339e+03
2
# CELL(abcABC):   37.69329    37.69329    37.69329    90.00000    90.00000    90.00000  Step:          80  Bead:       2 forces{piconewton}  cell{angstrom}
       H  1.01058e+04 -1.67610e+03 -5.68741e+03
       H -1.01058e+04  1.67610e+03  5.68741e+03
2
# CELL(abcABC):   37.69329    37.69329    37.69329    90.00000    90.00000    90.00000  Step:          85  Bead:       2 forces{piconewton}  cell{angstrom}
       H -3.09186e+03  1.76858e+02  1.67742e+03
       H  3.09186e+03 -1.76858e+02 -1.67742e+03
2
# CELL(abcABC):   37.69329    37.69329    37.69329    90.00000    90.00000    90.00000  Step:          90  Bead:       2 forces{piconewton}  cell{angstrom}
       H -6.45359e+03 -4.63787e+02  3.21847e+03
       H  6.45359e+03  4.63787e+02 -3.21847e+03
2
# CELL(abcABC):   37.69329    37.69329    37.69329    90.00000    90.00000    90.00000  Step:          95  Bead:       2 forces{piconewton}  cell{angstrom}
       H -2.93335e+03 -5.82657e+02  1.43724e+03
       H  2.93335e+03  5.82657e+02 -1.43724e+03
2
# CELL(abcABC):   37.69329    37.69329    37.69329    90.00000    90.00000    90.00000  Step:         100  Bead:       2 forces{piconewton}  cell{angstrom}
       H  1.38227e+04  2.82193e+03 -7.19109e+03
       H -1.38227e+04 -2.82193e+03  7.19109e+03
2
# CELL(abcABC):   37.69329    37.69329    37.69329    90.00000    90.00000    90.00000  Step:         105  Bead:       2 forces{piconewton}  cell{angstrom}
       H  4.35093e+03  5.13302e+02 -2.41896e+03
       H -4.35093e+03 -5.13302e+02  2.41896e+03
2
# CELL(abcABC):   37.69329    37.69329    37.69329    90.00000    90.00000    90.00000  Step:         110  Bead:       2 forces{piconewton}  cell{angstrom}
       H -8.06424e+03 -4.09883e+02  4.42600e+03
       H  8.06424e+03  4.09883e+02 -4.42600e+03
2
# CELL(abcABC):   37.69329    37.69329    37.69329    90.00000    90.00000    90.00000  Step:         115  Bead:       2 forces{piconewton}  cell{angstrom}
       H -9.71469e+03  2.02445e+02  5.18778e+03
       H  9.71469e+03 -2.02445e+02 -5.18778e+03
2
# CELL(abcABC):   37.69329    37.69329    37.69329    90.00000    90.00000    90.00000  Step:         120  Bead:       2 forces{piconewton}  cell{angstrom}
       H -6.00704e+03  1.09633e+02  3.23786e+03
       H  6.00704e+03 -1.09633e+02 -3.23786e+03
2
# CELL(abcABC):   37.69329    37.69329    37.69329    90.00000    90.00000    90.00000  Step:         125  Bead:       2 forces{piconewton}  cell{angstrom}
       H  1.02507e+04  1.38676e+02 -5.14277e+03
       H -1.02507e+04 -1.38676e+02  5.14277e+03
2
# CELL(abcABC):   37.69329    37.69329    37.69329    90.00000    90.00000    90.00000  Step:         130  Bead:       2 forces{piconewton}  cell{angstrom}
       H  1.00911e+04  5.00792e+02 -5.56281e+03
       H -1.00911e+04 -5.00792e+02  5.56281e+03
2
# CELL(abcABC):   37.69329    37.69329    37.69329    90.00000    90.00000    90.00000  Step:         135  Bead:       2 forces{piconewton}  cell{angstrom}
       H -3.92776e+03 -2.00882e+02  1.88902e+03
       H  3.92776e+03  2.00882e+02 -1.88902e+03
2
# CELL(abcABC):   37.69329    37.69329    37.69329    90.00000    90.00000    90.00000  Step:         140  Bead:       2 forces{piconewton}  cell{angstrom}
       H -7.68327e+03 -2.02203e+02  3.09661e+03
       H  7.68327e+03  2.02203e+02 -3.09661e+03
2
# CELL(abcABC):   37.69329    37.69329    37.69329    90.00000    90.00000    90.00000  Step:         145  Bead:       2 forces{piconewton}  cell{angstrom}
       H -3.98365e+03 -3.68137e+02  1.35670e+03
       H  3.98365e+03  3.68137e+02 -1.35670e+03
2
# CELL(abcABC):   37.69329    37.69329    37.69329    90.00000    90.00000    90.00000  Step:         150  Bead:       2 forces{piconewton}  cell{angstrom}
       H  7.79623e+03  1.56608e+03 -2.61160e+03
       H -7.79623e+03 -1.56608e+03  2.61160e+03
2
# CELL(abcABC):   37.69329    37.69329    37.69329    90.00000    90.00000    90.00000  Step:         155  Bead:       2 forces{piconewton}  cell{angstrom}
       H  9.95614e+03  1.81474e+03 -3.62325e+03
       H -9.95614e+03 -1.81474e+03  3.62325e+03
2
# CELL(abcABC):   37.69329    37.69329    37.69329    90.00000    90.00000    90.00000  Step:         160  Bead:       2 forces{piconewton}  cell{angstrom}
       H -1.42754e+03 -1.82315e+02  5.85743e+02
       H  1.42754e+03  1.82315e+02 -5.85743e+02
2
# CELL(abcABC):   37.69329    37.69329    37.69329    90.00000    90.00000    90.00000  Step:         165  Bead:       2 forces{piconewton}  cell{angstrom}
       H -8.81314e+03 -1.48962e+03  3.35695e+03
       H  8.81314e+03  1.48962e+03 -3.35695e+03
2
# CELL(abcABC):   37.69329    37.69329    37.69329    90.00000    90.00000    90.00000  Step:         170  Bead:       2 forces{piconewton}  cell{angstrom}
       H -8.63643e+03 -1.25018e+03  3.52726e+03
       H  8.63643e+03  1.25018e+03 -3.52726e+03
2
# CELL(abcABC):   37.69329    37.69329    37.69329    90.00000    90.00000    90.00000  Step:         175  Bead:       2 forces{piconewton}  cell{angstrom}
       H -4.90945e+03 -6.70836e+02  2.67832e+03
       H  4.90945e+03  6.70836e+02 -2.67832e+03
2
# CELL(abcABC):   37.69329    37.69329    37.69329    90.00000    90.00000    90.00000  Step:         180  Bead:       2 forces{piconewton}  cell{angstrom}
       H  6.19314e+03  1.24598e+03 -4.46531e+03
       H -6.19314e+03 -1.24598e+03  4.46531e+03
2
# CELL(abcABC):   37.69329    37.69329    37.69329    90.00000    90.00000    90.00000  Step:         185  Bead:       2 forces{piconewton}  cell{angstrom}
       H  3.72584e+03  1.26488e+03 -3.18247e+03
       H -3.72584e+03 -1.26488e+03  3.18247e+03
2
# CELL(abcABC):   37.69329    37.69329    37.69329    90.00000    90.00000    90.00000  Step:         190  Bead:       2 forces{piconewton}  cell{angstrom}
       H -3.46957e+03 -1.55973e+03  3.17875e+03
       H  3.46957e+03  1.55973e+03 -3.17875e+03
2
# CELL(abcABC):   37.69329    37.69329    37.69329    90.00000    90.00000    90.00000  Step:         195  Bead:       2 forces{piconewton}  cell{angstrom}
       H -2.41778e+03 -1.28369e+03  2.22334e+03
       H  2.41778e+03  1.28369e+03 -2.22334e+03
2
# CELL(abcABC):   37.69329    37.69329    37.69329    90.00000    90.00000    90.00000  Step:         200  Bead:       2 forces{piconewton}  cell{angstrom}
       H  5.64573e+03  4.03027e+03 -5.82753e+03
       H -5.64573e+03 -4.03027e+03  5.82753e+03
2
# CELL(abcABC):   37.69329    37.69329    37.69329    90.00000    90.00000    90.00000  Step:         205  Bead:       2 forces{piconewton}  cell{angstrom}
       H  8.75755e+03  7.81925e+03 -8.94172e+03
       H -8.75755e+03 -7.81925e+03  8.94172e+03
2
# CELL(abcABC):   37.69329    37.69329    37.69329    90.00000    90.00000    90.00000  Step:         210  Bead:       2 forces{piconewton}  cell{angstrom}
       H -2.26012e+03 -2.11050e+03  2.65425e+03
       H  2.26012e+03  2.11050e+03 -2.65425e+03
2
# CELL(abcABC):   37.69329    37.69329    37.69329    90.00000    90.00000    90.00000  Step:         215  Bead:       2 forces{piconewton}  cell{angstrom}
       H -3.81182e+03 -3.66411e+03  5.36044e+03
       H  3.81182e+03  3.66411e+03 -5.36044e+03
2
# CELL(abcABC):   37.69329    37.69329    37.69329    90.00000    90.00000    90.00000  Step:         220  Bead:       2 forces{piconewton}  cell{angstrom}
       H -1.75886e+03 -1.59467e+03  2.68682e+03
       H  1.75886e+03  1.59467e+03 -2.68682e+03
2
# CELL(abcABC):   37.69329    37.69329    37.69329    90.00000    90.00000    90.00000  Step:         225  Bead:       2 forces{piconewton}  cell{angstrom}
       H  2.81649e+03  2.64516e+03 -4.66450e+03
       H -2.81649e+03 -2.64516e+03  4.66450e+03
2
# CELL(abcABC):   37.69329    37.69329    37.69329    90.00000    90.00000    90.00000  Step:         230  Bead:       2 forces{piconewton}  cell{angstrom}
       H  4.95434e+03  5.02608e+03 -9.34055e+03
       H -4.95434e+03 -5.02608e+03  9.34055e+03
2
# CELL(abcABC):   37.69329    37.69329    37.69329    90.00000    90.00000    90.00000  Step:         235  Bead:       2 forces{piconewton}  cell{angstrom}
       H  9.19683e+02  8.22305e+02 -1.60838e+03
       H -9.19683e+02 -8.22305e+02  1.60838e+03
2
# CELL(abcABC):   37.69329    37.69329    37.69329    90.00000    90.00000    90.00000  Step:         240  Bead:       2 forces{piconewton}  cell{angstrom}
       H -2.02017e+03 -1.62502e+03  3.49172e+03
       H  2.02017e+03  1.62502e+03 -3.49172e+03
2
# CELL(abcABC):   37.69329    37.69329    37.69329    90.00000    90.00000    90.00000  Step:         245  Bead:       2 forces{piconewton}  cell{angstrom}
       H -1.32900e+02 -9.41259e+01  2.46939e+02
       H  1.32900e+02  9.41259e+01 -2.46939e+02
2
# CELL(abcABC):   37.69329    37.69329    37.69329    90.00000    90.00000    90.00000  Step:         250  Bead:       2 forces{piconewton}  cell{angstrom}
       H  4.93175e+02  3.44759e+02 -9.85530e+02
       H -4.93175e+02 -3.44759e+02  9.85530e+02
2
# CELL(abcABC):   37.69329    37.69329    37.69329    90.00000    90.00000    90.00000  Step:         255  Bead:       2 forces{piconewton}  cell{angstrom}
       H -2.56921e+02 -1.76641e+02  4.86431e+02
       H  2.56921e+02  1.76641e+02 -4.86431e+02
2
# CELL(abcABC):   37.69329    37.69329    37.69329    90.00000    90.00000    90.00000  Step:         260  Bead:       2 forces{piconewton}  cell{angstrom}
       H -9.83737e+02 -6.90269e+02  1.97288e+03
       H  9.83737e+02  6.90269e+02 -1.97288e+03
2
# CELL(abcABC):   37.69329    37.69329    37.69329    90.00000    90.00000    90.00000  Step:         265  Bead:       2 forces{piconewton}  cell{angstrom}
       H -1.52821e+03 -1.24405e+03  3.36493e+03
       H  1.52821e+03  1.24405e+03 -3.36493e+03
2
# CELL(abcABC):   37.69329    37.69329    37.69329    90.00000    90.00000    90.00000  Step:         270  Bead:       2 forces{piconewton}  cell{angstrom}
       H -2.79336e+02 -2.93943e+02  6.91477e+02
       H  2.79336e+02  2.93943e+02 -6.91477e+02
2
# CELL(abcABC):   37.69329    37.69329    37.69329    90.00000    90.00000    90.00000  Step:         275  Bead:       2 forces{piconewton}  cell{angstrom}
       H  1.63862e+03  1.76332e+03 -4.31778e+03
       H -1.63862e+03 -1.76332e+03  4.31778e+03
2
# CELL(abcABC):   37.69329    37.69329    37.69329    90.00000    90.00000    90.00000  Step:         280  Bead:       2 forces{piconewton}  cell{angstrom}
       H  2.08777e+03  2.56857e+03 -6.51479e+03
       H -2.08777e+03 -2.56857e+03  6.51479e+03
2
# CELL(abcABC):   37.69329    37.69329    37.69329    90.00000    90.00000    90.00000  Step:         285  Bead:       2 forces{piconewton}  cell{angstrom}
       H -1.11383e+02 -1.27945e+02  3.22371e+02
       H  1.11383e+02  1.27945e+02 -3.22371e+02
2
# CELL(abcABC):   37.69329    37.69329    37.69329    90.00000    90.00000    90.00000  Step:         290  Bead:       2 forces{piconewton}  cell{angstrom}
       H -1.05418e+03 -8.88161e+02  2.52717e+03
       H  1.05418e+03  8.88161e+02 -2.52717e+03
2
# CELL(abcABC):   37.69329    37.69329    37.69329    90.00000    90.00000    90.00000  Step:         295  Bead:       2 forces{piconewton}  cell{angstrom}
       H -9.46139e+02 -6.65250e+02  2.32206e+03
       H  9.46139e+02  6.65250e+02 -2.32206e+03
2
# CELL(abcABC):   37.69329    37.69329    37.69329    90.00000    90.00000    90.00000  Step:         300  Bead:       2 forces{piconewton}  cell{angstrom}
       H  2.98777e+03  1.37223e+03 -9.09112e+03
       H -2.98777e+03 -1.37223e+03  9.09112e+03
2
# CELL(abcABC):   37.69329    37.69329    37.69329    90.00000    90.00000    90.00000  Step:         305  Bead:       2 forces{piconewton}  cell{angstrom}
       H  1.52116e+03  5.98930e+02 -6.35100e+03
       H -1.52116e+03 -5.98930e+02  6.35100e+03
2
# CELL(abcABC):   37.69329    37.69329    37.69329    90.00000    90.00000    90.00000  Step:         310  Bead:       2 forces{piconewton}  cell{angstrom}
       H -1.52747e+03 -8.99119e+02  5.82917e+03
       H  1.52747e+03  8.99119e+02 -5.82917e+03
2
# CELL(abcABC):   37.69329    37.69329    37.69329    90.00000    90.00000    90.00000  Step:         315  Bead:       2 forces{piconewton}  cell{angstrom}
       H -2.48699e+03 -1.51264e+03  7.82844e+03
       H  2.48699e+03  1.51264e+03 -7.82844e+03
2
# CELL(abcABC):   37.69329    37.69329    37.69329    90.00000    90.00000    90.00000  Step:         320  Bead:       2 forces{piconewton}  cell{angstrom}
       H -2.04348e+03 -1.29220e+03  5.45598e+03
       H  2.04348e+03  1.29220e+03 -5.45598e+03
2
# CELL(abcABC):   37.69329    37.69329    37.69329    90.00000    90.00000    90.00000  Step:         325  Bead:       2 forces{piconewton}  cell{angstrom}
       H  1.42699e+03  8.33912e+02 -2.81166e+03
       H -1.42699e+03 -8.33912e+02  2.81166e+03
2
# CELL(abcABC):   37.69329    37.69329    37.69329    90.00000    90.00000    90.00000  Step:         330  Bead:       2 forces{piconewton}  cell{angstrom}
       H  2.08306e+03  1.27323e+03 -3.30447e+03
       H -2.08306e+03 -1.27323e+03  3.30447e+03
2
# CELL(abcABC):   37.69329    37.69329    37.69329    90.00000    90.00000    90.00000  Step:         335  Bead:       2 forces{piconewton}  cell{angstrom}
       H  9.79847e+02  6.89314e+02 -1.32098e+03
       H -9.79847e+02 -6.89314e+02  1.32098e+03
2
# CELL(abcABC):   37.69329    37.69329    37.69329    90.00000    90.00000    90.00000  Step:         340  Bead:       2 forces{piconewton}  cell{angstrom}
       H  3.31559e+03  2.82479e+03 -4.39803e+03
       H -3.31559e+03 -2.82479e+03  4.39803e+03
2
# CELL(abcABC):   37.69329    37.69329    37.69329    90.00000    90.00000    90.00000  Step:         345  Bead:       2 forces{piconewton}  cell{angstrom}
       H  1.99921e+03  1.84942e+03 -2.14454e+03
       H -1.99921e+03 -1.84942e+03  2.14454e+03
2
# CELL(abcABC):   37.69329    37.69329    37.69329    90.00000    90.00000    90.00000  Step:         350  Bead:       2 forces{piconewton}  cell{angstrom}
       H  1.02346e+02  9.17740e+01 -1.04932e+02
       H -1.02346e+02 -9.17740e+01  1.04932e+02
2
# CELL(abcABC):   37.69329    37.69329    37.69329    90.00000    90.00000    90.00000  Step:         355  Bead:       2 forces{piconewton}  cell{angstrom}
       H -1.29595e+03 -1.42322e+03  1.43874e+03
       H  1.29595e+03  1.42322e+03 -1.43874e+03
2
# CELL(abcABC):   37.69329    37.69329    37.69329    90.00000    90.00000    90.00000  Step:         360  Bead:       2 forces{piconewton}  cell{angstrom}
       H -6.41945e+02 -7.49152e+02  7.02017e+02
       H  6.41945e+02  7.49152e+02 -7.02017e+02
2
# CELL(abcABC):   37.69329    37.69329    37.69329    90.00000    90.00000    90.00000  Step:         365  Bead:       2 forces{piconewton}  cell{angstrom}
       H  4.04632e+02  5.24631e+02 -4.84000e+02
       H -4.04632e+02 -5.24631e+02  4.84000e+02
2
# CELL(abcABC):   37.69329    37.69329    37.69329    90.00000    90.00000    90.00000  Step:         370  Bead:       2 forces{piconewton}  cell{angstrom}
       H  8.57732e+02  1.23438e+03 -1.25136e+03
       H -8.57732e+02 -1.23438e+03  1.25136e+03
2
# CELL(abcABC):   37.69329    37.69329    37.69329    90.00000    90.00000    90.00000  Step:         375  Bead:       2 forces{piconewton}  cell{angstrom}
       H  2.54907e+02  3.25991e+02 -3.79013e+02
       H -2.54907e+02 -3.25991e+02  3.79013e+02
2
# CELL(abcABC):   37.69329    37.69329    37.69329    90.00000    90.00000    90.00000  Step:         380  Bead:       2 forces{piconewton}  cell{angstrom}
       H -2.08073e+03 -2.32126e+03  2.88550e+03
       H  2.08073e+03  2.32126e+03 -2.88550e+03
2
# CELL(abcABC):   37.69329    37.69329    37.69329    90.00000    90.00000    90.00000  Step:         385  Bead:       2 forces{piconewton}  cell{angstrom}
       H -1.03973e+03 -1.02895e+03  1.46992e+03
       H  1.03973e+03  1.02895e+03 -1.46992e+03
2
# CELL(abcABC):   37.69329    37.69329    37.69329    90.00000    90.00000    90.00000  Step:         390  Bead:       2 forces{piconewton}  cell{angstrom}
       H  1.04000e+03  8.61391e+02 -1.33192e+03
       H -1.04000e+03 -8.61391e+02  1.33192e+03
2
# CELL(abcABC):   37.69329    37.69329    37.69329    90.00000    90.00000    90.00000  Step:         395  Bead:       2 forces{piconewton}  cell{angstrom}
       H  9.31959e+02  8.04820e+02 -1.17078e+03
       H -9.31959e+02 -8.04820e+02  1.17078e+03
2
# CELL(abcABC):   37.69329    37.69329    37.69329    90.00000    90.00000    90.00000  Step:         400  Bead:       2 forces{piconewton}  cell{angstrom}
       H  9.36619e+02  7.88528e+02 -1.17435e+03
       H -9.36619e+02 -7.88528e+02  1.17435e+03
2
# CELL(abcABC):   37.69329    37.69329    37.69329    90.00000    90.00000    90.00000  Step:         405  Bead:       2 forces{piconewton}  cell{angstrom}
       H -7.83565e+02 -5.55412e+02  8.99235e+02
       H  7.83565e+02  5.55412e+02 -8.99235e+02
2
# CELL(abcABC):   37.69329    37.69329    37.69329    90.00000    90.00000    90.00000  Step:         410  Bead:       2 forces{piconewton}  cell{angstrom}
       H -3.96411e+02 -3.15029e+02  4.63456e+02
       H  3.96411e+02  3.15029e+02 -4.63456e+02
2
# CELL(abcABC):   37.69329    37.69329    37.69329    90.00000    90.00000    90.00000  Step:         415  Bead:       2 forces{piconewton}  cell{angstrom}
       H  1.54618e+03  1.50297e+03 -1.50181e+03
       H -1.54618e+03 -1.50297e+03  1.50181e+03
2
# CELL(abcABC):   37.69329    37.69329    37.69329    90.00000    90.00000    90.00000  Step:         420  Bead:       2 forces{piconewton}  cell{angstrom}
       H  2.82699e+03  3.12479e+03 -2.62564e+03
       H -2.82699e+03 -3.12479e+03  2.62564e+03
2
# CELL(abcABC):   37.69329    37.69329    37.69329    90.00000    90.00000    90.00000  Step:         425  Bead:       2 forces{piconewton}  cell{angstrom}
       H -9.51176e+02 -1.09320e+03  7.50897e+02
       H  9.51176e+02  1.09320e+03 -7.50897e+02
2
# CELL(abcABC):   37.69329    37.69329    37.69329    90.00000    90.00000    90.00000  Step:         430  Bead:       2 forces{piconewton}  cell{angstrom}
       H -1.77697e+03 -2.13635e+03  1.22406e+03
       H  1.77697e+03  2.13635e+03 -1.22406e+03
2
# CELL(abcABC):   37.69329    37.69329    37.69329    90.00000    90.00000    90.00000  Step:         435  Bead:       2 forces{piconewton}  cell{angstrom}
       H  1.03689e+03  1.43851e+03 -7.52728e+02
       H -1.03689e+03 -1.43851e+03  7.52728e+02
2
# CELL(abcABC):   37.69329    37.69329    37.69329    90.00000    90.00000    90.00000  Step:         440  Bead:       2 forces{piconewton}  cell{angstrom}
       H  1.14099e+03  1.65583e+03 -8.56658e+02
       H -1.14099e+03 -1.65583e+03  8.56658e+02
2
# CELL(abcABC):   37.69329    37.69329    37.69329    90.00000    90.00000    90.00000  Step:         445  Bead:       2 forces{piconewton}  cell{angstrom}
       H -3.07630e+02 -4.94261e+02  2.22543e+02
       H  3.07630e+02  4.94261e+02 -2.22543e+02
2
# CELL(abcABC):   37.69329    37.69329    37.69329    90.00000    90.00000    90.00000  Step:         450  Bead:       2 forces{piconewton}  cell{angstrom}
       H -8.49759e+02 -1.59886e+03  6.33838e+02
       H  8.49759e+02  1.59886e+03 -6.33838e+02
2
# CELL(abcABC):   37.69329    37.69329    37.69329    90.00000    90.00000    90.00000  Step:         455  Bead:       2 forces{piconewton}  cell{angstrom}
       H  6.63473e+02  1.53601e+03 -5.03046e+02
       H -6.63473e+02 -1.53601e+03  5.03046e+02
2
# CELL(abcABC):   37.69329    37.69329    37.69329    90.00000    90.00000    90.00000  Step:         460  Bead:       2 forces{piconewton}  cell{angstrom}
       H  5.02726e+01  1.11095e+02 -2.35958e+01
       H -5.02726e+01 -1.11095e+02  2.35958e+01
2
# CELL(abcABC):   37.69329    37.69329    37.69329    90.00000    90.00000    90.00000  Step:         465  Bead:       2 forces{piconewton}  cell{angstrom}
       H  5.64921e+02  1.76734e+03 -2.27350e+02
       H -5.64921e+02 -1.76734e+03  2.27350e+02
2
# CELL(abcABC):   37.69329    37.69329    37.69329    90.00000    90.00000    90.00000  Step:         470  Bead:       2 forces{piconewton}  cell{angstrom}
       H  1.48638e+03  5.28540e+03 -3.28375e+02
       H -1.48638e+03 -5.28540e+03  3.28375e+02
2
# CELL(abcABC):   37.69329    37.69329    37.69329    90.00000    90.00000    90.00000  Step:         475  Bead:       2 forces{piconewton}  cell{angstrom}
       H -6.84720e+02 -2.29231e+03  1.65406e+02
       H  6.84720e+02  2.29231e+03 -1.65406e+02
2
# CELL(abcABC):   37.69329    37.69329    37.69329    90.00000    90.00000    90.00000  Step:         480  Bead:       2 forces{piconewton}  cell{angstrom}
       H  2.88304e+02  8.66097e+02 -9.20444e+01
       H -2.88304e+02 -8.66097e+02  9.20444e+01
2
# CELL(abcABC):   37.69329    37.69329    37.69329    90.00000    90.00000    90.00000  Step:         485  Bead:       2 forces{piconewton}  cell{angstrom}
       H  1.69568e+02  4.67829e+02 -4.70205e+01
       H -1.69568e+02 -4.67829e+02  4.70205e+01
2
# CELL(abcABC):   37.69329    37.69329    37.69329    90.00000    90.00000    90.00000  Step:         490  Bead:       2 forces{piconewton}  cell{angstrom}
       H -1.01226e+03 -2.23977e+03  2.73563e+02
       H  1.01226e+03  2.23977e+03 -2.73563e+02
2
# CELL(abcABC):   37.69329    37.69329    37.69329    90.00000    90.00000    90.00000  Step:         495  Bead:       2 forces{piconewton}  cell{angstrom}
       H -1.70369e+03 -3.34941e+03  4.50830e+02
       H  1.70369e+03  3.34941e+03 -4.50830e+02
2
# CELL(abcABC):   37.69329    37.69329    37.69329    90.00000    90.00000    90.00000  Step:         500  Bead:       2 forces{piconewton}  cell{angstrom}
       H  1.46788e+02  2.85503e+02 -5.19845e+01
       H -1.46788e+02 -2.85503e+02  5.19845e+01
2
# CELL(abcABC):   37.69329    37.69329    37.69329    90.00000    90.00000    90.00000  Step:         505  Bead:       2 forces{piconewton}  cell{angstrom}
       H  1.27420e+03  1.89443e+03 -4.55323e+02
       H -1.27420e+03 -1.89443e+03  4.55323e+02
2
# CELL(abcABC):   37.69329    37.69329    37.69329    90.00000    90.00000    90.00000  Step:         510  Bead:       2 forces{piconewton}  cell{angstrom}
       H  1.31042e+03  1.50800e+03 -3.16842e+02
       H -1.31042e+03 -1.50800e+03  3.16842e+02
2
# CELL(abcABC):   37.69329    37.69329    37.69329    90.00000    90.00000    90.00000  Step:         515  Bead:       2 forces{piconewton}  cell{angstrom}
       H -2.30042e+03 -2.59210e+03  4.43021e+02
       H  2.30042e+03  2.59210e+03 -4.43021e+02
2
# CELL(abcABC):   37.69329    37.69329    37.69329    90.00000    90.00000    90.00000  Step:         520  Bead:       2 forces{piconewton}  cell{angstrom}
       H -2.19779e+03 -2.45817e+03  6.47861e+02
       H  2.19779e+03  2.45817e+03 -6.47861e+02
2
# CELL(abcABC):   37.69329    37.69329    37.69329    90.00000    90.00000    90.00000  Step:         525  Bead:       2 forces{piconewton}  cell{angstrom}
       H  1.99162e+02  2.23856e+02 -9.25654e+01
       H -1.99162e+02 -2.23856e+02  9.25654e+01
2
# CELL(abcABC):   37.69329    37.69329    37.69329    90.00000    90.00000    90.00000  Step:         530  Bead:       2 forces{piconewton}  cell{angstrom}
       H  4.06932e+02  4.88672e+02 -2.44084e+02
       H -4.06932e+02 -4.88672e+02  2.44084e+02
2
# CELL(abcABC):   37.69329    37.69329    37.69329    90.00000    90.00000    90.00000  Step:         535  Bead:       2 forces{piconewton}  cell{angstrom}
       H -1.55271e+03 -1.95749e+03  9.13524e+02
       H  1.55271e+03  1.95749e+03 -9.13524e+02
2
# CELL(abcABC):   37.69329    37.69329    37.69329    90.00000    90.00000    90.00000  Step:         540  Bead:       2 forces{piconewton}  cell{angstrom}
       H -3.76918e+03 -3.96460e+03  2.07430e+03
       H  3.76918e+03  3.96460e+03 -2.07430e+03
2
# CELL(abcABC):   37.69329    37.69329    37.69329    90.00000    90.00000    90.00000  Step:         545  Bead:       2 forces{piconewton}  cell{angstrom}
       H -4.85675e+02 -4.22747e+02  2.32818e+02
       H  4.85675e+02  4.22747e+02 -2.32818e+02
2
# CELL(abcABC):   37.69329    37.69329    37.69329    90.00000    90.00000    90.00000  Step:         550  Bead:       2 forces{piconewton}  cell{angstrom}
       H  3.34789e+03  2.39331e+03 -8.48986e+02
       H -3.34789e+03 -2.39331e+03  8.48986e+02
2
# CELL(abcABC):   37.69329    37.69329    37.69329    90.00000    90.00000    90.00000  Step:         555  Bead:       2 forces{piconewton}  cell{angstrom}
       H  4.27608e+03  2.69121e+03 -5.10946e+02
       H -4.27608e+03 -2.69121e+03  5.10946e+02
2
# CELL(abcABC):   37.69329    37.69329    37.69329    90.00000    90.00000    90.00000  Step:         560  Bead:       2 forces{piconewton}  cell{angstrom}
       H  4.26524e+03  2.36559e+03 -9.65952e+02
       H -4.26524e+03 -2.36559e+03  9.65952e+02
2
# CELL(abcABC):   37.69329    37.69329    37.69329    90.00000    90.00000    90.00000  Step:         565  Bead:       2 forces{piconewton}  cell{angstrom}
       H  4.57872e+02  2.10040e+02 -1.46593e+02
       H -4.57872e+02 -2.10040e+02  1.46593e+02
2
# CELL(abcABC):   37.69329    37.69329    37.69329    90.00000    90.00000    90.00000  Step:         570  Bead:       2 forces{piconewton}  cell{angstrom}
       H -2.74357e+03 -8.91005e+02  9.45062e+02
       H  2.74357e+03  8.91005e+02 -9.45062e+02
2
# CELL(abcABC):   37.69329    37.69329    37.69329    90.00000    90.00000    90.00000  Step:         575  Bead:       2 forces{piconewton}  cell{angstrom}
       H -2.55452e+02 -5.74383e+01  8.74013e+01
       H  2.55452e+02  5.74383e+01 -8.74013e+01
2
# CELL(abcABC):   37.69329    37.69329    37.69329    90.00000    90.00000    90.00000  Step:         580  Bead:       2 forces{piconewton}  cell{angstrom}
       H  1.31282e+03  3.03470e+02 -3.55876e+02
       H -1.31282e+03 -3.03470e+02  3.55876e+02
2
# CELL(abcABC):   37.69329    37.69329    37.69329    90.00000    90.00000    90.00000  Step:         585  Bead:       2 forces{piconewton}  cell{angstrom}
       H  2.43574e+03  6.98787e+02 -3.85819e+02
       H -2.43574e+03 -6.98787e+02  3.85819e+02
2