2
# CELL(abcABC):   37.69329    37.69329    37.69329    90.00000    90.00000    90.00000  Step:           0  Bead:       0 forces{piconewton}  cell{angstrom}
       H  2.13084e+04 -6.29184e+03 -2.09728e+02
       H -2.13084e+04  6.29184e+03  2.09728e+02
2
# CELL(abcABC):   37.69329    37.69329    37.69329    90.00000    90.00000    90.00000  Step:           5  Bead:       0 forces{piconewton}  cell{angstrom}
       H  3.03306e+03 -1.26861e+03 -3.33701e+02
       H -3.03306e+03  1.26861e+03  3.33701e+02
2
# CELL(abcABC):   37.69329    37.69329    37.69329    90.00000    90.00000    90.00000  Step:          10  Bead:       0 forces{piconewton}  cell{angstrom}
       H -8.74670e+03  4.45155e+03  1.59737e+03
       H  8.74670e+03 -4.45155e+03 -1.59737e+03
2
# CELL(abcABC):   37.69329    37.69329    37.69329    90.00000    90.00000    90.00000  Step:          15  Bead:       0 forces{piconewton}  cell{angstrom}
       H -9.66847e+03  5.49357e+03  2.06605e+03
       H  9.66847e+03 -5.49357e+03 -2.06605e+03
2
# CELL(abcABC):   37.69329    37.69329    37.69329    90.00000    90.00000    90.00000  Step:          20  Bead:       0 forces{piconewton}  cell{angstrom}
       H -4.73285e+03  2.86188e+03  7.14262e+02
       H  4.73285e+03 -2.86188e+03 -7.14262e+02
2
# CELL(abcABC):   37.69329    37.69329    37.69329    90.00000    90.00000    90.00000  Step:          25  Bead:       0 forces{piconewton}  cell{angstrom}
       H  1.87255e+04 -1.02684e+04 -2.80621e+03
       H -1.87255e+04  1.02684e+04  2.80621e+03
2
# CELL(abcABC):   37.69329    37.69329    37.69329    90.00000    90.00000    90.00000  Step:          30  Bead:       0 forces{piconewton}  cell{angstrom}
       H  2.41875e+03 -1.25367e+03 -6.27313e+02
       H -2.41875e+03  1.25367e+03  6.27313e+02
2
# CELL(abcABC):   37.69329    37.69329    37.69329    90.00000    90.00000    90.00000  Step:          35  Bead:       0 forces{piconewton}  cell{angstrom}
       H -9.41412e+03  3.89473e+03  2.31893e+03
       H  9.41412e+03 -3.89473e+03 -2.31893e+03
2
# CELL(abcABC):   37.69329    37.69329    37.69329    90.00000    90.00000    90.00000  Step:          40  Bead:       0 forces{piconewton}  cell{angstrom}
       H -1.09898e+04  3.28105e+03  2.09252e+03
       H  1.09898e+04 -3.28105e+03 -2.09252e+03
2
# CELL(abcABC):   37.69329    37.69329    37.69329    90.00000    90.00000    90.00000  Step:          45  Bead:       0 forces{piconewton}  cell{angstrom}
       H -4.33935e+03  8.60503e+02  4.94682e+02
       H  4.33935e+03 -8.60503e+02 -4.94682e+02
2
# CELL(abcABC):   37.69329    37.69329    37.69329    90.00000    90.00000    90.00000  Step:          50  Bead:       0 forces{piconewton}  cell{angstrom}
       H  1.64253e+04 -1.95655e+03 -5.04746e+02
       H -1.64253e+04  1.95655e+03  5.04746e+02
2
# CELL(abcABC):   37.69329    37.69329    37.69329    90.00000    90.00000    90.00000  Step:          55  Bead:       0 forces{piconewton}  cell{angstrom}
       H  4.00796e+03 -4.99712e+02  3.95816e+02
       H -4.00796e+03  4.99712e+02 -3.95816e+02
2
# CELL(abcABC):   37.69329    37.69329    37.69329    90.00000    90.00000    90.00000  Step:          60  Bead:       0 forces{piconewton}  cell{angstrom}
       H -6.91703e+03  4.98182e+02 -1.29182e+03
       H  6.91703e+03 -4.98182e+02  1.29182e+03
2
# CELL(abcABC):   37.69329    37.69329    37.69329    90.00000    90.00000    90.00000  Step:          65  Bead:       0 forces{piconewton}  cell{angstrom}
       H -9.05990e+03  5.64679e+02 -1.82060e+03
       H  9.05990e+03 -5.64679e+02  1.82060e+03
2
# CELL(abcABC):   37.69329    37.69329    37.69329    90.00000    90.00000    90.00000  Step:          70  Bead:       0 forces{piconewton}  cell{angstrom}
       H -7.79623e+03  7.33488e+02 -1.14055e+03
       H  7.79623e+03 -7.33488e+02  1.14055e+03
2
# CELL(abcABC):   37.69329    37.69329    37.69329    90.00000    90.00000    90.00000  Step:          75  Bead:       0 forces{piconewton}  cell{angstrom}
       H  8.52775e+03 -6.29250e+02  8.39651e+02
       H -8.52775e+03  6.29250e+02 -8.39651e+02
2
# CELL(abcABC):   37.69329    37.69329    37.69329    90.00000    90.00000    90.00000  Step:          80  Bead:       0 forces{piconewton}  cell{angstrom}
       H  1.08398e+04 -4.71952e+02  7.01865e+02
       H -1.08398e+04  4.71952e+02 -7.01865e+02
2
# CELL(abcABC):   37.69329    37.69329    37.69329    90.00000    90.00000    90.00000  Step:          85  Bead:       0 forces{piconewton}  cell{angstrom}
       H -6.85416e+03  4.19839e+01  7.32787e+01
       H  6.85416e+03 -4.19839e+01 -7.32787e+01
2
# CELL(abcABC):   37.69329    37.69329    37.69329    90.00000    90.00000    90.00000  Step:          90  Bead:       0 forces{piconewton}  cell{angstrom}
       H -9.49689e+03  3.17056e+02  7.17498e+02
       H  9.49689e+03 -3.17056e+02 -7.17498e+02
2
# CELL(abcABC):   37.69329    37.69329    37.69329    90.00000    90.00000    90.00000  Step:          95  Bead:       0 forces{piconewton}  cell{angstrom}
       H -5.83250e+03  2.20657e+02  8.65493e+02
       H  5.83250e+03 -2.20657e+02 -8.65493e+02
2
# CELL(abcABC):   37.69329    37.69329    37.69329    90.00000    90.00000    90.00000  Step:         100  Bead:       0 forces{piconewton}  cell{angstrom}
       H  1.49287e+04 -2.36544e+02 -2.38160e+03
       H -1.49287e+04  2.36544e+02  2.38160e+03
2
# CELL(abcABC):   37.69329    37.69329    37.69329    90.00000    90.00000    90.00000  Step:         105  Bead:       0 forces{piconewton}  cell{angstrom}
       H  8.93582e+03  3.50456e+02 -2.14578e+03
       H -8.93582e+03 -3.50456e+02  2.14578e+03
2
# CELL(abcABC):   37.69329    37.69329    37.69329    90.00000    90.00000    90.00000  Step:         110  Bead:       0 forces{piconewton}  cell{angstrom}
       H -6.59056e+03 -1.50701e+02  1.43602e+03
       H  6.59056e+03  1.50701e+02 -1.43602e+03
2
# CELL(abcABC):   37.69329    37.69329    37.69329    90.00000    90.00000    90.00000  Step:         115  Bead:       0 forces{piconewton}  cell{angstrom}
       H -9.03365e+03 -2.34789e+00  2.03512e+03
       H  9.03365e+03  2.34789e+00 -2.03512e+03
2
# CELL(abcABC):   37.69329    37.69329    37.69329    90.00000    90.00000    90.00000  Step:         120  Bead:       0 forces{piconewton}  cell{angstrom}
       H -4.68594e+03 -3.87087e+02  1.14328e+03
       H  4.68594e+03  3.87087e+02 -1.14328e+03
2
# CELL(abcABC):   37.69329    37.69329    37.69329    90.00000    90.00000    90.00000  Step:         125  Bead:       0 forces{piconewton}  cell{angstrom}
       H  4.97431e+03  6.56856e+02 -1.70386e+03
       H -4.97431e+03 -6.56856e+02  1.70386e+03
2
# CELL(abcABC):   37.69329    37.69329    37.69329    90.00000    90.00000    90.00000  Step:         130  Bead:       0 forces{piconewton}  cell{angstrom}
       H  3.67475e+03  5.06389e+02 -1.86485e+03
       H -3.67475e+03 -5.06389e+02  1.86485e+03
2
# CELL(abcABC):   37.69329    37.69329    37.69329    90.00000    90.00000    90.00000  Step:         135  Bead:       0 forces{piconewton}  cell{angstrom}
       H -4.23525e+03 -4.77046e+02  2.36020e+03
       H  4.23525e+03  4.77046e+02 -2.36020e+03
2
# CELL(abcABC):   37.69329    37.69329    37.69329    90.00000    90.00000    90.00000  Step:         140  Bead:       0 forces{piconewton}  cell{angstrom}
       H -6.50776e+03 -1.20464e+03  4.36970e+03
       H  6.50776e+03  1.20464e+03 -4.36970e+03
2
# CELL(abcABC):   37.69329    37.69329    37.69329    90.00000    90.00000    90.00000  Step:         145  Bead:       0 forces{piconewton}  cell{angstrom}
       H -2.95705e+03 -7.84316e+02  2.11804e+03
       H  2.95705e+03  7.84316e+02 -2.11804e+03
2
# CELL(abcABC):   37.69329    37.69329    37.69329    90.00000    90.00000    90.00000  Step:         150  Bead:       0 forces{piconewton}  cell{angstrom}
       H  7.24326e+03  2.17595e+03 -5.98113e+03
       H -7.24326e+03 -2.17595e+03  5.98113e+03
2
# CELL(abcABC):   37.69329    37.69329    37.69329    90.00000    90.00000    90.00000  Step:         155  Bead:       0 forces{piconewton}  cell{angstrom}
       H  6.03809e+03  1.88367e+03 -4.84154e+03
       H -6.03809e+03 -1.88367e+03  4.84154e+03
2
# CELL(abcABC):   37.69329    37.69329    37.69329    90.00000    90.00000    90.00000  Step:         160  Bead:       0 forces{piconewton}  cell{angstrom}
       H -5.95809e+03 -2.20828e+03  4.35528e+03
       H  5.95809e+03  2.20828e+03 -4.35528e+03
2
# CELL(abcABC):   37.69329    37.69329    37.69329    90.00000    90.00000    90.00000  Step:         165  Bead:       0 forces{piconewton}  cell{angstrom}
       H -9.19101e+03 -3.32223e+03  5.69276e+03
       H  9.19101e+03  3.32223e+03 -5.69276e+03
2
# CELL(abcABC):   37.69329    37.69329    37.69329    90.00000    90.00000    90.00000  Step:         170  Bead:       0 forces{piconewton}  cell{angstrom}
       H -4.97298e+03 -1.68485e+03  2.96012e+03
       H  4.97298e+03  1.68485e+03 -2.96012e+03
2
# CELL(abcABC):   37.69329    37.69329    37.69329    90.00000    90.00000    90.00000  Step:         175  Bead:       0 forces{piconewton}  cell{angstrom}
       H  1.96586e+04  2.36612e+03 -1.02070e+04
       H -1.96586e+04 -2.36612e+03  1.02070e+04
2
# CELL(abcABC):   37.69329    37.69329    37.69329    90.00000    90.00000    90.00000  Step:         180  Bead:       0 forces{piconewton}  cell{angstrom}
       H  7.40050e+03 -4.56817e+02 -3.16860e+03
       H -7.40050e+03  4.56817e+02  3.16860e+03
2
# CELL(abcABC):   37.69329    37.69329    37.69329    90.00000    90.00000    90.00000  Step:         185  Bead:       0 forces{piconewton}  cell{angstrom}
       H -5.92741e+03  4.58114e+02  2.19027e+03
       H  5.92741e+03 -4.58114e+02 -2.19027e+03
2
# CELL(abcABC):   37.69329    37.69329    37.69329    90.00000    90.00000    90.00000  Step:         190  Bead:       0 forces{piconewton}  cell{angstrom}
       H -6.01152e+03  2.06163e+02  2.31278e+03
       H  6.01152e+03 -2.06163e+02 -2.31278e+03
2
# CELL(abcABC):   37.69329    37.69329    37.69329    90.00000    90.00000    90.00000  Step:         195  Bead:       0 forces{piconewton}  cell{angstrom}
       H -1.89653e+03 -1.24842e+02  9.14430e+02
       H  1.89653e+03  1.24842e+02 -9.14430e+02
2
# CELL(abcABC):   37.69329    37.69329    37.69329    90.00000    90.00000    90.00000  Step:         200  Bead:       0 forces{piconewton}  cell{angstrom}
       H  2.28118e+03  2.54727e+02 -1.11395e+03
       H -2.28118e+03 -2.54727e+02  1.11395e+03
2
# CELL(abcABC):   37.69329    37.69329    37.69329    90.00000    90.00000    90.00000  Step:         205  Bead:       0 forces{piconewton}  cell{angstrom}
       H  6.74105e+03  9.94142e+02 -3.51192e+03
       H -6.74105e+03 -9.94142e+02  3.51192e+03
2
# CELL(abcABC):   37.69329    37.69329    37.69329    90.00000    90.00000    90.00000  Step:         210  Bead:       0 forces{piconewton}  cell{angstrom}
       H  9.52677e+02  1.44991e+02 -5.59694e+02
       H -9.52677e+02 -1.44991e+02  5.59694e+02
2
# CELL(abcABC):   37.69329    37.69329    37.69329    90.00000    90.00000    90.00000  Step:         215  Bead:       0 forces{piconewton}  cell{angstrom}
       H -2.43409e+03 -4.50928e+02  1.43407e+03
       H  2.43409e+03  4.50928e+02 -1.43407e+03
2
# CELL(abcABC):   37.69329    37.69329    37.69329    90.00000    90.00000    90.00000  Step:         220  Bead:       0 forces{piconewton}  cell{angstrom}
       H -1.88597e+02 -4.57618e+01  1.00057e+02
       H  1.88597e+02  4.57618e+01 -1.00057e+02
2
# CELL(abcABC):   37.69329    37.69329    37.69329    90.00000    90.00000    90.00000  Step:         225  Bead:       0 forces{piconewton}  cell{angstrom}
       H  7.60525e+02  2.60403e+02 -3.70754e+02
       H -7.60525e+02 -2.60403e+02  3.70754e+02
2
# CELL(abcABC):   37.69329    37.69329    37.69329    90.00000    90.00000    90.00000  Step:         230  Bead:       0 forces{piconewton}  cell{angstrom}
       H  2.93334e+03  1.19677e+03 -1.34616e+03
       H -2.93334e+03 -1.19677e+03  1.34616e+03
2
# CELL(abcABC):   37.69329    37.69329    37.69329    90.00000    90.00000    90.00000  Step:         235  Bead:       0 forces{piconewton}  cell{angstrom}
       H -4.78885e+02 -1.71158e+02  2.25806e+02
       H  4.78885e+02  1.71158e+02 -2.25806e+02
2
# CELL(abcABC):   37.69329    37.69329    37.69329    90.00000    90.00000    90.00000  Step:         240  Bead:       0 forces{piconewton}  cell{angstrom}
       H -2.03665e+03 -6.96116e+02  8.71896e+02
       H  2.03665e+03  6.96116e+02 -8.71896e+02
2
# CELL(abcABC):   37.69329    37.69329    37.69329    90.00000    90.00000    90.00000  Step:         245  Bead:       0 forces{piconewton}  cell{angstrom}
       H -7.55910e+02 -2.07942e+02  3.15658e+02
       H  7.55910e+02  2.07942e+02 -3.15658e+02
2
# CELL(abcABC):   37.69329    37.69329    37.69329    90.00000    90.00000    90.00000  Step:         250  Bead:       0 forces{piconewton}  cell{angstrom}
       H  7.41854e+03  1.88475e+03 -3.87868e+03
       H -7.41854e+03 -1.88475e+03  3.87868e+03
2
# CELL(abcABC):   37.69329    37.69329    37.69329    90.00000    90.00000    90.00000  Step:         255  Bead:       0 forces{piconewton}  cell{angstrom}
       H  4.22862e+03  1.06538e+03 -3.05369e+03
       H -4.22862e+03 -1.06538e+03  3.05369e+03
2
# CELL(abcABC):   37.69329    37.69329    37.69329    90.00000    90.00000    90.00000  Step:         260  Bead:       0 forces{piconewton}  cell{angstrom}
       H -1.09849e+03 -3.61595e+02  1.07095e+03
       H  1.09849e+03  3.61595e+02 -1.07095e+03
2
# CELL(abcABC):   37.69329    37.69329    37.69329    90.00000    90.00000    90.00000  Step:         265  Bead:       0 forces{piconewton}  cell{angstrom}
       H -3.61282e+03 -1.34278e+03  4.87020e+03
       H  3.61282e+03  1.34278e+03 -4.87020e+03
2
# CELL(abcABC):   37.69329    37.69329    37.69329    90.00000    90.00000    90.00000  Step:         270  Bead:       0 forces{piconewton}  cell{angstrom}
       H -2.89936e+03 -9.56489e+02  4.37288e+03
       H  2.89936e+03  9.56489e+02 -4.37288e+03
2
# CELL(abcABC):   37.69329    37.69329    37.69329    90.00000    90.00000    90.00000  Step:         275  Bead:       0 forces{piconewton}  cell{angstrom}
       H  8.71733e+02  2.60267e+02 -2.03555e+03
       H -8.71733e+02 -2.60267e+02  2.03555e+03
2
# CELL(abcABC):   37.69329    37.69329    37.69329    90.00000    90.00000    90.00000  Step:         280  Bead:       0 forces{piconewton}  cell{angstrom}
       H  2.80138e+02  4.01613e+01 -9.28495e+02
       H -2.80138e+02 -4.01613e+01  9.28495e+02
2
# CELL(abcABC):   37.69329    37.69329    37.69329    90.00000    90.00000    90.00000  Step:         285  Bead:       0 forces{piconewton}  cell{angstrom}
       H -6.94627e+02  1.13990e+02  2.98678e+03
       H  6.94627e+02 -1.13990e+02 -2.98678e+03
2
# CELL(abcABC):   37.69329    37.69329    37.69329    90.00000    90.00000    90.00000  Step:         290  Bead:       0 forces{piconewton}  cell{angstrom}
       H -5.65198e+02  5.43352e+02  4.31816e+03
       H  5.65198e+02 -5.43352e+02 -4.31816e+03
2
# CELL(abcABC):   37.69329    37.69329    37.69329    90.00000    90.00000    90.00000  Step:         295  Bead:       0 forces{piconewton}  cell{angstrom}
       H -1.73309e+02  5.00783e+02  2.90271e+03
       H  1.73309e+02 -5.00783e+02 -2.90271e+03
2
# CELL(abcABC):   37.69329    37.69329    37.69329    90.00000    90.00000    90.00000  Step:         300  Bead:       0 forces{piconewton}  cell{angstrom}
       H  4.47020e+01  5.00511e+02  2.79176e+03
       H -4.47020e+01 -5.00511e+02 -2.79176e+03
2
# CELL(abcABC):   37.69329    37.69329    37.69329    90.00000    90.00000    90.00000  Step:         305  Bead:       0 forces{piconewton}  cell{angstrom}
       H -4.35688e+01 -4.35534e+02 -3.07774e+03
       H  4.35688e+01  4.35534e+02  3.07774e+03
2
# CELL(abcABC):   37.69329    37.69329    37.69329    90.00000    90.00000    90.00000  Step:         310  Bead:       0 forces{piconewton}  cell{angstrom}
       H -1.90566e+01 -1.54428e+02 -1.27860e+03
       H  1.90566e+01  1.54428e+02  1.27860e+03
2
# CELL(abcABC):   37.69329    37.69329    37.69329    90.00000    90.00000    90.00000  Step:         315  Bead:       0 forces{piconewton}  cell{angstrom}
       H -2.71423e+00 -1.12240e+01 -1.18512e+02
       H  2.71423e+00  1.12240e+01  1.18512e+02
2
# CELL(abcABC):   37.69329    37.69329    37.69329    90.00000    90.00000    90.00000  Step:         320  Bead:       0 forces{piconewton}  cell{angstrom}
       H -3.35972e+00 -1.24005e+02 -1.28679e+03
       H  3.35972e+00  1.24005e+02  1.28679e+03
2
# CELL(abcABC):   37.69329    37.69329    37.69329    90.00000    90.00000    90.00000  Step:         325  Bead:       0 forces{piconewton}  cell{angstrom}
       H  1.97280e+00  1.24293e+01  9.99642e+01
       H -1.97280e+00 -1.24293e+01 -9.99642e+01
2
# CELL(abcABC):   37.69329    37.69329    37.69329    90.00000    90.00000    90.00000  Step:         330  Bead:       0 forces{piconewton}  cell{angstrom}
       H  5.86366e+00  8.22313e+01  3.85894e+02
       H -5.86366e+00 -8.22313e+01 -3.85894e+02
2
# CELL(abcABC):   37.69329    37.69329    37.69329    90.00000    90.00000    90.00000  Step:         335  Bead:       0 forces{piconewton}  cell{angstrom}
       H -1.78662e+01  1.18918e+03  3.88878e+03
       H  1.78662e+01 -1.18918e+03 -3.88878e+03
2
# CELL(abcABC):   37.69329    37.69329    37.69329    90.00000    90.00000    90.00000  Step:         340  Bead:       0 forces{piconewton}  cell{angstrom}
       H -4.38002e+01  9.93031e+02  3.77155e+03
       H  4.38002e+01 -9.93031e+02 -3.77155e+03
2
# CELL(abcABC):   37.69329    37.69329    37.69329    90.00000    90.00000    90.00000  Step:         345  Bead:       0 forces{piconewton}  cell{angstrom}
       H -7.20676e+00  6.19304e+02  2.89796e+03
       H  7.20676e+00 -6.19304e+02 -2.89796e+03
2
# CELL(abcABC):   37.69329    37.69329    37.69329    90.00000    90.00000    90.00000  Step:         350  Bead:       0 forces{piconewton}  cell{angstrom}
       H  3.90246e+01 -1.21206e+02 -8.56987e+02
       H -3.90246e+01  1.21206e+02  8.56987e+02
2
# CELL(abcABC):   37.69329    37.69329    37.69329    90.00000    90.00000    90.00000  Step:         355  Bead:       0 forces{piconewton}  cell{angstrom}
       H -1.51257e+01  1.93005e+01  1.64222e+02
       H  1.51257e+01 -1.93005e+01 -1.64222e+02
2
# CELL(abcABC):   37.69329    37.69329    37.69329    90.00000    90.00000    90.00000  Step:         360  Bead:       0 forces{piconewton}  cell{angstrom}
       H -6.17261e+01  1.50388e+01  3.54469e+02
       H  6.17261e+01 -1.50388e+01 -3.54469e+02
2
# CELL(abcABC):   37.69329    37.69329    37.69329    90.00000    90.00000    90.00000  Step:         365  Bead:       0 forces{piconewton}  cell{angstrom}
       H  6.39422e+02 -2.16617e+01 -2.69105e+03
       H -6.39422e+02  2.16617e+01  2.69105e+03
2
# CELL(abcABC):   37.69329    37.69329    37.69329    90.00000    90.00000    90.00000  Step:         370  Bead:       0 forces{piconewton}  cell{angstrom}
       H  1.30131e+03  3.28489e+02 -4.69912e+03
       H -1.30131e+03 -3.28489e+02  4.69912e+03
2
# CELL(abcABC):   37.69329    37.69329    37.69329    90.00000    90.00000    90.00000  Step:         375  Bead:       0 forces{piconewton}  cell{angstrom}
       H  2.46437e+03  7.86687e+02 -6.27546e+03
       H -2.46437e+03 -7.86687e+02  6.27546e+03
2
# CELL(abcABC):   37.69329    37.69329    37.69329    90.00000    90.00000    90.00000  Step:         380  Bead:       0 forces{piconewton}  cell{angstrom}
       H  1.77713e+03  6.83118e+02 -3.64669e+03
       H -1.77713e+03 -6.83118e+02  3.64669e+03
2
# CELL(abcABC):   37.69329    37.69329    37.69329    90.00000    90.00000    90.00000  Step:         385  Bead:       0 forces{piconewton}  cell{angstrom}
       H -1.86074e+03 -9.33576e+02  3.10843e+03
       H  1.86074e+03  9.33576e+02 -3.10843e+03
2
# CELL(abcABC):   37.69329    37.69329    37.69329    90.00000    90.00000    90.00000  Step:         390  Bead:       0 forces{piconewton}  cell{angstrom}
       H -6.32847e+02 -3.59806e+02  1.01992e+03
       H  6.32847e+02  3.59806e+02 -1.01992e+03
2
# CELL(abcABC):   37.69329    37.69329    37.69329    90.00000    90.00000    90.00000  Step:         395  Bead:       0 forces{piconewton}  cell{angstrom}
       H  1.06880e+03  6.85031e+02 -1.70199e+03
       H -1.06880e+03 -6.85031e+02  1.70199e+03
2
# CELL(abcABC):   37.69329    37.69329    37.69329    90.00000    90.00000    90.00000  Step:         400  Bead:       0 forces{piconewton}  cell{angstrom}
       H -7.87234e+02 -5.51212e+02  1.25938e+03
       H  7.87234e+02  5.51212e+02 -1.25938e+03
2
# CELL(abcABC):   37.69329    37.69329    37.69329    90.00000    90.00000    90.00000  Step:         405  Bead:       0 forces{piconewton}  cell{angstrom}
       H -1.81499e+03 -1.21876e+03  2.35008e+03
       H  1.81499e+03  1.21876e+03 -2.35008e+03
2
# CELL(abcABC):   37.69329    37.69329    37.69329    90.00000    90.00000    90.00000  Step:         410  Bead:       0 forces{piconewton}  cell{angstrom}
       H -7.14388e+02 -5.60047e+02  8.10863e+02
       H  7.14388e+02  5.60047e+02 -8.10863e+02
2
# CELL(abcABC):   37.69329    37.69329    37.69329    90.00000    90.00000    90.00000  Step:         415  Bead:       0 forces{piconewton}  cell{angstrom}
       H -9.66130e+02 -7.41199e+02  1.04417e+03
       H  9.66130e+02  7.41199e+02 -1.04417e+03
2
# CELL(abcABC):   37.69329    37.69329    37.69329    90.00000    90.00000    90.00000  Step:         420  Bead:       0 forces{piconewton}  cell{angstrom}
       H -9.21344e+02 -6.54005e+02  9.37069e+02
       H  9.21344e+02  6.54005e+02 -9.37069e+02
2
# CELL(abcABC):   37.69329    37.69329    37.69329    90.00000    90.00000    90.00000  Step:         425  Bead:       0 forces{piconewton}  cell{angstrom}
       H  2.75796e+03  1.51333e+03 -2.91879e+03
       H -2.75796e+03 -1.51333e+03  2.91879e+03
2
# CELL(abcABC):   37.69329    37.69329    37.69329    90.00000    90.00000    90.00000  Step:         430  Bead:       0 forces{piconewton}  cell{angstrom}
       H  2.20039e+03  1.23176e+03 -2.37116e+03
       H -2.20039e+03 -1.23176e+03  2.37116e+03
2
# CELL(abcABC):   37.69329    37.69329    37.69329    90.00000    90.00000    90.00000  Step:         435  Bead:       0 forces{piconewton}  cell{angstrom}
       H -1.22972e+03 -6.69663e+02  1.19238e+03
       H  1.22972e+03  6.69663e+02 -1.19238e+03
2
# CELL(abcABC):   37.69329    37.69329    37.69329    90.00000    90.00000    90.00000  Step:         440  Bead:       0 forces{piconewton}  cell{angstrom}
       H -2.56725e+03 -1.21053e+03  2.23993e+03
       H  2.56725e+03  1.21053e+03 -2.23993e+03
2
# CELL(abcABC):   37.69329    37.69329    37.69329    90.00000    90.00000    90.00000  Step:         445  Bead:       0 forces{piconewton}  cell{angstrom}
       H -1.73286e+03 -7.19943e+02  1.50022e+03
       H  1.73286e+03  7.19943e+02 -1.50022e+03
2
# CELL(abcABC):   37.69329    37.69329    37.69329    90.00000    90.00000    90.00000  Step:         450  Bead:       0 forces{piconewton}  cell{angstrom}
       H  2.15129e+03  6.99981e+02 -1.92484e+03
       H -2.15129e+03 -6.99981e+02  1.92484e+03
2
# CELL(abcABC):   37.69329    37.69329    37.69329    90.00000    90.00000    90.00000  Step:         455  Bead:       0 forces{piconewton}  cell{angstrom}
       H  2.27687e+03  5.95451e+02 -1.98008e+03
       H -2.27687e+03 -5.95451e+02  1.98008e+03
2
# CELL(abcABC):   37.69329    37.69329    37.69329    90.00000    90.00000    90.00000  Step:         460  Bead:       0 forces{piconewton}  cell{angstrom}
       H  5.08306e+03  1.00750e+03 -3.98037e+03
       H -5.08306e+03 -1.00750e+03  3.98037e+03
2
# CELL(abcABC):   37.69329    37.69329    37.69329    90.00000    90.00000    90.00000  Step:         465  Bead:       0 forces{piconewton}  cell{angstrom}
       H  2.66329e+03  6.54166e+02 -1.80382e+03
       H -2.66329e+03 -6.54166e+02  1.80382e+03
2
# CELL(abcABC):   37.69329    37.69329    37.69329    90.00000    90.00000    90.00000  Step:         470  Bead:       0 forces{piconewton}  cell{angstrom}
       H -9.83351e+02 -3.03220e+02  6.78042e+02
       H  9.83351e+02  3.03220e+02 -6.78042e+02
2
# CELL(abcABC):   37.69329    37.69329    37.69329    90.00000    90.00000    90.00000  Step:         475  Bead:       0 forces{piconewton}  cell{angstrom}
       H -1.63576e+03 -5.72225e+02  1.17812e+03
       H  1.63576e+03  5.72225e+02 -1.17812e+03
2
# CELL(abcABC):   37.69329    37.69329    37.69329    90.00000    90.00000    90.00000  Step:         480  Bead:       0 forces{piconewton}  cell{angstrom}
       H -3.40756e+03 -1.27407e+03  2.39080e+03
       H  3.40756e+03  1.27407e+03 -2.39080e+03
2
# CELL(abcABC):   37.69329    37.69329    37.69329    90.00000    90.00000    90.00000  Step:         485  Bead:       0 forces{piconewton}  cell{angstrom}
       H  3.10169e+03  1.23121e+03 -2.01292e+03
       H -3.10169e+03 -1.23121e+03  2.01292e+03
2
# CELL(abcABC):   37.69329    37.69329    37.69329    90.00000    90.00000    90.00000  Step:         490  Bead:       0 forces{piconewton}  cell{angstrom}
       H  4.10483e+03  1.95482e+03 -2.19252e+03
       H -4.10483e+03 -1.95482e+03  2.19252e+03
2
# CELL(abcABC):   37.69329    37.69329    37.69329    90.00000    90.00000    90.00000  Step:         495  Bead:       0 forces{piconewton}  cell{angstrom}
       H -8.32474e+02 -4.80876e+02  4.03378e+02
       H  8.32474e+02  4.80876e+02 -4.03378e+02
2
# CELL(abcABC):   37.69329    37.69329    37.69329    90.00000    90.00000    90.00000  Step:         500  Bead:       0 forces{piconewton}  cell{angstrom}
       H -2.55142e+03 -1.80710e+03  1.24768e+03
       H  2.55142e+03  1.80710e+03 -1.24768e+03
2
# CELL(abcABC):   37.69329    37.69329    37.69329    90.00000    90.00000    90.00000  Step:         505  Bead:       0 forces{piconewton}  cell{angstrom}
       H -4.15069e+03 -3.22131e+03  1.94755e+03
       H  4.15069e+03  3.22131e+03 -1.94755e+03
2
# CELL(abcABC):   37.69329    37.69329    37.69329    90.00000    90.00000    90.00000  Step:         510  Bead:       0 forces{piconewton}  cell{angstrom}
       H -3.27808e+03 -2.41137e+03  1.52042e+03
       H  3.27808e+03  2.41137e+03 -1.52042e+03
2
# CELL(abcABC):   37.69329    37.69329    37.69329    90.00000    90.00000    90.00000  Step:         515  Bead:       0 forces{piconewton}  cell{angstrom}
       H  2.55469e+03  1.66977e+03 -1.18210e+03
       H -2.55469e+03 -1.66977e+03  1.18210e+03
2
# CELL(abcABC):   37.69329    37.69329    37.69329    90.00000    90.00000    90.00000  Step:         520  Bead:       0 forces{piconewton}  cell{angstrom}
       H  8.63091e+03  5.23439e+03 -3.10752e+03
       H -8.63091e+03 -5.23439e+03  3.10752e+03
2
# CELL(abcABC):   37.69329    37.69329    37.69329    90.00000    90.00000    90.00000  Step:         525  Bead:       0 forces{piconewton}  cell{angstrom}
       H  2.16020e+03  1.66159e+03 -6.75493e+02
       H -2.16020e+03 -1.66159e+03  6.75493e+02
2
# CELL(abcABC):   37.69329    37.69329    37.69329    90.00000    90.00000    90.00000  Step:         530  Bead:       0 forces{piconewton}  cell{angstrom}
       H -1.86359e+02 -1.55610e+02  5.48629e+01
       H  1.86359e+02  1.55610e+02 -5.48629e+01
2
# CELL(abcABC):   37.69329    37.69329    37.69329    90.00000    90.00000    90.00000  Step:         535  Bead:       0 forces{piconewton}  cell{angstrom}
       H -2.75392e+03 -2.69275e+03  7.23494e+02
       H  2.75392e+03  2.69275e+03 -7.23494e+02
2
# CELL(abcABC):   37.69329    37.69329    37.69329    90.00000    90.00000    90.00000  Step:         540  Bead:       0 forces{piconewton}  cell{angstrom}
       H -2.27294e+03 -2.66488e+03  7.75889e+02
       H  2.27294e+03  2.66488e+03 -7.75889e+02
2
# CELL(abcABC):   37.69329    37.69329    37.69329    90.00000    90.00000    90.00000  Step:         545  Bead:       0 forces{piconewton}  cell{angstrom}
       H  1.95830e+03  2.97648e+03 -9.61305e+02
       H -1.95830e+03 -2.97648e+03  9.61305e+02
2
# CELL(abcABC):   37.69329    37.69329    37.69329    90.00000    90.00000    90.00000  Step:         550  Bead:       0 forces{piconewton}  cell{angstrom}
       H  2.22781e+03  7.28971e+03 -2.12657e+03
       H -2.22781e+03 -7.28971e+03  2.12657e+03
2
# CELL(abcABC):   37.69329    37.69329    37.69329    90.00000    90.00000    90.00000  Step:         555  Bead:       0 forces{piconewton}  cell{angstrom}
       H -3.52179e+02 -3.91610e+03  9.36083e+02
       H  3.52179e+02  3.91610e+03 -9.36083e+02
2
# CELL(abcABC):   37.69329    37.69329    37.69329    90.00000    90.00000    90.00000  Step:         560  Bead:       0 forces{piconewton}  cell{angstrom}
       H -4.34402e+02 -6.06209e+03  1.53089e+03
       H  4.34402e+02  6.06209e+03 -1.53089e+03
2
# CELL(abcABC):   37.69329    37.69329    37.69329    90.00000    90.00000    90.00000  Step:         565  Bead:       0 forces{piconewton}  cell{angstrom}
       H -6.03778e+01 -5.15930e+02  1.06372e+02
       H  6.03778e+01  5.15930e+02 -1.06372e+02
2
# CELL(abcABC):   37.69329    37.69329    37.69329    90.00000    90.00000    90.00000  Step:         570  Bead:       0 forces{piconewton}  cell{angstrom}
       H  8.20688e+02  5.58377e+03 -8.93747e+02
       H -8.20688e+02 -5.58377e+03  8.93747e+02
2
# CELL(abcABC):   37.69329    37.69329    37.69329    90.00000    90.00000    90.00000  Step:         575  Bead:       0 forces{piconewton}  cell{angstrom}
       H  3.91004e+02  2.46539e+03 -3.89456e+02
       H -3.91004e+02 -2.46539e+03  3.89456e+02
2
# CELL(abcABC):   37.69329    37.69329    37.69329    90.00000    90.00000    90.00000  Step:         580  Bead:       0 forces{piconewton}  cell{angstrom}
       H -1.66178e+02 -1.19474e+03  2.19889e+02
       H  1.66178e+02  1.19474e+03 -2.19889e+02
2
# CELL(abcABC):   37.69329    37.69329    37.69329    90.00000    90.00000    90.00000  Step:         585  Bead:       0 forces{piconewton}  cell{angstrom}
       H -1.15970e+02 -8.84618e+02  1.27157e+02
       H  1.15970e+02  8.84618e+02 -1.27157e+02
2