2
# CELL(abcABC):   37.69329    37.69329    37.69329    90.00000    90.00000    90.00000  Step:           0  Bead:       0 positions{angstrom}  cell{angstrom}
       H  2.68822e-01  0.00000e+00  0.00000e+00
       H -2.68822e-01  1.58753e-01  5.29177e-03
2
# CELL(abcABC):   37.69329    37.69329    37.69329    90.00000    90.00000    90.00000  Step:           5  Bead:       0 positions{angstrom}  cell{angstrom}
       H  3.11236e-01 -1.46474e-02 -4.16899e-02
       H -3.11794e-01  2.45943e-01  2.68568e-02
2
# CELL(abcABC):   37.69329    37.69329    37.69329    90.00000    90.00000    90.00000  Step:          10  Bead:       0 positions{angstrom}  cell{angstrom}
       H  3.86771e-01 -4.90170e-02 -6.58915e-02
       H -4.01903e-01  3.52370e-01  7.81404e-02
2
# CELL(abcABC):   37.69329    37.69329    37.69329    90.00000    90.00000    90.00000  Step:          15  Bead:       0 positions{angstrom}  cell{angstrom}
       H  3.70951e-01 -6.98786e-02 -5.85629e-02
       H -4.41372e-01  3.91679e-01  1.15022e-01
2
# CELL(abcABC):   37.69329    37.69329    37.69329    90.00000    90.00000    90.00000  Step:          20  Bead:       0 positions{angstrom}  cell{angstrom}
       H  2.83691e-01 -1.61001e-02 -4.36008e-02
       H -3.87368e-01  3.89679e-01  5.76726e-02
2
# CELL(abcABC):   37.69329    37.69329    37.69329    90.00000    90.00000    90.00000  Step:          25  Bead:       0 positions{angstrom}  cell{angstrom}
       H  1.74013e-01  8.65343e-02 -6.04191e-02
       H -3.16000e-01  3.55240e-01  1.30146e-02
2
# CELL(abcABC):   37.69329    37.69329    37.69329    90.00000    90.00000    90.00000  Step:          30  Bead:       0 positions{angstrom}  cell{angstrom}
       H  1.88065e-01  6.82925e-02 -8.45486e-02
       H -4.03318e-01  3.74813e-01  6.88288e-02
2
# CELL(abcABC):   37.69329    37.69329    37.69329    90.00000    90.00000    90.00000  Step:          35  Bead:       0 positions{angstrom}  cell{angstrom}
       H  2.75138e-01  1.71885e-02 -6.89188e-02
       H -5.48832e-01  3.58074e-01  1.34045e-01
2
# CELL(abcABC):   37.69329    37.69329    37.69329    90.00000    90.00000    90.00000  Step:          40  Bead:       0 positions{angstrom}  cell{angstrom}
       H  3.05607e-01  1.37070e-02 -3.85196e-02
       H -6.06106e-01  2.85903e-01  1.35076e-01
2
# CELL(abcABC):   37.69329    37.69329    37.69329    90.00000    90.00000    90.00000  Step:          45  Bead:       0 positions{angstrom}  cell{angstrom}
       H  2.19445e-01  6.94682e-02  2.16147e-02
       H -5.32740e-01  2.18628e-01  1.07363e-01
2
# CELL(abcABC):   37.69329    37.69329    37.69329    90.00000    90.00000    90.00000  Step:          50  Bead:       0 positions{angstrom}  cell{angstrom}
       H  1.52897e-01  1.19756e-01  5.25413e-02
       H -4.30665e-01  1.89270e-01  7.04741e-02
2
# CELL(abcABC):   37.69329    37.69329    37.69329    90.00000    90.00000    90.00000  Step:          55  Bead:       0 positions{angstrom}  cell{angstrom}
       H  2.44319e-01  1.36063e-01  7.07756e-02
       H -4.19378e-01  2.18813e-01  5.23065e-03
2
# CELL(abcABC):   37.69329    37.69329    37.69329    90.00000    90.00000    90.00000  Step:          60  Bead:       0 positions{angstrom}  cell{angstrom}
       H  3.67940e-01  1.61171e-01  6.91836e-02
       H -4.35777e-01  2.19057e-01 -8.09177e-02
2
# CELL(abcABC):   37.69329    37.69329    37.69329    90.00000    90.00000    90.00000  Step:          65  Bead:       0 positions{angstrom}  cell{angstrom}
       H  4.29422e-01  1.58655e-01  6.24052e-02
       H -4.26772e-01  2.12019e-01 -1.09648e-01
2
# CELL(abcABC):   37.69329    37.69329    37.69329    90.00000    90.00000    90.00000  Step:          70  Bead:       0 positions{angstrom}  cell{angstrom}
       H  4.19303e-01  1.45292e-01  2.88215e-02
       H -4.07398e-01  2.23071e-01 -9.21208e-02
2
# CELL(abcABC):   37.69329    37.69329    37.69329    90.00000    90.00000    90.00000  Step:          75  Bead:       0 positions{angstrom}  cell{angstrom}
       H  2.97222e-01  1.64268e-01 -2.60626e-02
       H -3.34362e-01  2.10872e-01 -8.82490e-02
2
# CELL(abcABC):   37.69329    37.69329    37.69329    90.00000    90.00000    90.00000  Step:          80  Bead:       0 positions{angstrom}  cell{angstrom}
       H  2.78325e-01  1.94506e-01 -4.91046e-02
       H -3.40745e-01  2.21459e-01 -8.91886e-02
2
# CELL(abcABC):   37.69329    37.69329    37.69329    90.00000    90.00000    90.00000  Step:          85  Bead:       0 positions{angstrom}  cell{angstrom}
       H  4.08686e-01  2.12008e-01 -7.54033e-02
       H -4.06699e-01  2.17002e-01 -6.66859e-02
2
# CELL(abcABC):   37.69329    37.69329    37.69329    90.00000    90.00000    90.00000  Step:          90  Bead:       0 positions{angstrom}  cell{angstrom}
       H  4.61630e-01  2.04687e-01 -1.17420e-01
       H -4.18545e-01  2.34072e-01 -5.09224e-02
2
# CELL(abcABC):   37.69329    37.69329    37.69329    90.00000    90.00000    90.00000  Step:          95  Bead:       0 positions{angstrom}  cell{angstrom}
       H  4.13959e-01  2.15803e-01 -1.41902e-01
       H -3.73505e-01  2.45594e-01 -2.50496e-02
2
# CELL(abcABC):   37.69329    37.69329    37.69329    90.00000    90.00000    90.00000  Step:         100  Bead:       0 positions{angstrom}  cell{angstrom}
       H  2.94146e-01  2.04232e-01 -1.42008e-01
       H -2.94004e-01  2.13551e-01 -4.81789e-02
2
# CELL(abcABC):   37.69329    37.69329    37.69329    90.00000    90.00000    90.00000  Step:         105  Bead:       0 positions{angstrom}  cell{angstrom}
       H  2.93653e-01  1.84781e-01 -1.88308e-01
       H -3.20551e-01  1.60693e-01 -4.08179e-02
2
# CELL(abcABC):   37.69329    37.69329    37.69329    90.00000    90.00000    90.00000  Step:         110  Bead:       0 positions{angstrom}  cell{angstrom}
       H  3.76814e-01  1.31337e-01 -2.14730e-01
       H -4.17557e-01  1.13173e-01 -4.16441e-02
2
# CELL(abcABC):   37.69329    37.69329    37.69329    90.00000    90.00000    90.00000  Step:         115  Bead:       0 positions{angstrom}  cell{angstrom}
       H  4.17690e-01  1.00093e-01 -2.06008e-01
       H -4.35910e-01  9.98708e-02 -1.37078e-02
2
# CELL(abcABC):   37.69329    37.69329    37.69329    90.00000    90.00000    90.00000  Step:         120  Bead:       0 positions{angstrom}  cell{angstrom}
       H  3.56699e-01  1.12044e-01 -1.58125e-01
       H -3.96656e-01  4.98123e-02  2.56791e-02
2
# CELL(abcABC):   37.69329    37.69329    37.69329    90.00000    90.00000    90.00000  Step:         125  Bead:       0 positions{angstrom}  cell{angstrom}
       H  2.66587e-01  1.10794e-01 -1.41765e-01
       H -3.54372e-01  2.87961e-02  7.09344e-02
2
# CELL(abcABC):   37.69329    37.69329    37.69329    90.00000    90.00000    90.00000  Step:         130  Bead:       0 positions{angstrom}  cell{angstrom}
       H  2.54606e-01  1.16596e-01 -1.68559e-01
       H -3.39481e-01  3.47292e-02  1.32926e-01
2
# CELL(abcABC):   37.69329    37.69329    37.69329    90.00000    90.00000    90.00000  Step:         135  Bead:       0 positions{angstrom}  cell{angstrom}
       H  3.07675e-01  1.17579e-01 -2.02385e-01
       H -3.69088e-01  4.13499e-02  1.74759e-01
2
# CELL(abcABC):   37.69329    37.69329    37.69329    90.00000    90.00000    90.00000  Step:         140  Bead:       0 positions{angstrom}  cell{angstrom}
       H  3.16327e-01  1.46022e-01 -2.19077e-01
       H -3.72573e-01  1.85009e-02  2.43492e-01
2
# CELL(abcABC):   37.69329    37.69329    37.69329    90.00000    90.00000    90.00000  Step:         145  Bead:       0 positions{angstrom}  cell{angstrom}
       H  2.65306e-01  1.84645e-01 -1.79970e-01
       H -3.38900e-01  2.43877e-02  2.52804e-01
2
# CELL(abcABC):   37.69329    37.69329    37.69329    90.00000    90.00000    90.00000  Step:         150  Bead:       0 positions{angstrom}  cell{angstrom}
       H  2.05739e-01  2.17710e-01 -1.73787e-01
       H -2.66822e-01  7.57479e-02  2.16431e-01
2
# CELL(abcABC):   37.69329    37.69329    37.69329    90.00000    90.00000    90.00000  Step:         155  Bead:       0 positions{angstrom}  cell{angstrom}
       H  2.24457e-01  2.61334e-01 -2.13851e-01
       H -2.61328e-01  1.09786e-01  1.75668e-01
2
# CELL(abcABC):   37.69329    37.69329    37.69329    90.00000    90.00000    90.00000  Step:         160  Bead:       0 positions{angstrom}  cell{angstrom}
       H  3.21014e-01  3.17728e-01 -2.95878e-01
       H -3.24141e-01  7.86110e-02  1.75721e-01
2
# CELL(abcABC):   37.69329    37.69329    37.69329    90.00000    90.00000    90.00000  Step:         165  Bead:       0 positions{angstrom}  cell{angstrom}
       H  4.12935e-01  3.25151e-01 -3.18041e-01
       H -3.59283e-01  4.60208e-02  1.60259e-01
2
# CELL(abcABC):   37.69329    37.69329    37.69329    90.00000    90.00000    90.00000  Step:         170  Bead:       0 positions{angstrom}  cell{angstrom}
       H  3.97114e-01  2.60709e-01 -2.75752e-01
       H -2.62116e-01  3.73607e-02  1.16648e-01
2
# CELL(abcABC):   37.69329    37.69329    37.69329    90.00000    90.00000    90.00000  Step:         175  Bead:       0 positions{angstrom}  cell{angstrom}
       H  3.22882e-01  1.54297e-01 -2.17962e-01
       H -1.71627e-01  9.47773e-02  3.87943e-02
2
# CELL(abcABC):   37.69329    37.69329    37.69329    90.00000    90.00000    90.00000  Step:         180  Bead:       0 positions{angstrom}  cell{angstrom}
       H  3.83226e-01  8.90002e-02 -2.27635e-01
       H -2.04290e-01  1.25266e-01  2.39159e-02
2
# CELL(abcABC):   37.69329    37.69329    37.69329    90.00000    90.00000    90.00000  Step:         185  Bead:       0 positions{angstrom}  cell{angstrom}
       H  4.76417e-01  7.99513e-02 -2.38898e-01
       H -2.76666e-01  1.38155e-01  3.93773e-02
2
# CELL(abcABC):   37.69329    37.69329    37.69329    90.00000    90.00000    90.00000  Step:         190  Bead:       0 positions{angstrom}  cell{angstrom}
       H  4.52383e-01  9.51440e-02 -2.13484e-01
       H -3.00508e-01  1.20964e-01  7.61723e-02
2
# CELL(abcABC):   37.69329    37.69329    37.69329    90.00000    90.00000    90.00000  Step:         195  Bead:       0 positions{angstrom}  cell{angstrom}
       H  3.99563e-01  1.22394e-01 -2.19426e-01
       H -2.63804e-01  7.87270e-02  1.00424e-01
2
# CELL(abcABC):   37.69329    37.69329    37.69329    90.00000    90.00000    90.00000  Step:         200  Bead:       0 positions{angstrom}  cell{angstrom}
       H  3.67433e-01  1.38714e-01 -2.04026e-01
       H -2.45781e-01  7.02401e-02  9.54182e-02
2
# CELL(abcABC):   37.69329    37.69329    37.69329    90.00000    90.00000    90.00000  Step:         205  Bead:       0 positions{angstrom}  cell{angstrom}
       H  3.36191e-01  1.68719e-01 -1.97798e-01
       H -2.29279e-01  8.53258e-02  9.67973e-02
2
# CELL(abcABC):   37.69329    37.69329    37.69329    90.00000    90.00000    90.00000  Step:         210  Bead:       0 positions{angstrom}  cell{angstrom}
       H  3.47259e-01  1.76475e-01 -2.05172e-01
       H -2.51318e-01  8.53757e-02  1.46490e-01
2
# CELL(abcABC):   37.69329    37.69329    37.69329    90.00000    90.00000    90.00000  Step:         215  Bead:       0 positions{angstrom}  cell{angstrom}
       H  3.58840e-01  1.81330e-01 -1.64550e-01
       H -2.77467e-01  6.34505e-02  2.10339e-01
2
# CELL(abcABC):   37.69329    37.69329    37.69329    90.00000    90.00000    90.00000  Step:         220  Bead:       0 positions{angstrom}  cell{angstrom}
       H  3.33806e-01  1.68318e-01 -1.03615e-01
       H -2.83517e-01  1.85287e-02  2.23898e-01
2
# CELL(abcABC):   37.69329    37.69329    37.69329    90.00000    90.00000    90.00000  Step:         225  Bead:       0 positions{angstrom}  cell{angstrom}
       H  3.14680e-01  1.88513e-01 -6.33982e-02
       H -2.88922e-01 -1.81595e-02  2.30856e-01
2
# CELL(abcABC):   37.69329    37.69329    37.69329    90.00000    90.00000    90.00000  Step:         230  Bead:       0 positions{angstrom}  cell{angstrom}
       H  3.05030e-01  1.93605e-01 -6.82658e-02
       H -2.72351e-01 -4.19605e-02  1.96705e-01
2
# CELL(abcABC):   37.69329    37.69329    37.69329    90.00000    90.00000    90.00000  Step:         235  Bead:       0 positions{angstrom}  cell{angstrom}
       H  3.40494e-01  1.78861e-01 -1.28566e-01
       H -2.77951e-01 -4.21768e-02  1.63046e-01
2
# CELL(abcABC):   37.69329    37.69329    37.69329    90.00000    90.00000    90.00000  Step:         240  Bead:       0 positions{angstrom}  cell{angstrom}
       H  3.73800e-01  1.48092e-01 -1.45463e-01
       H -2.75686e-01 -7.38990e-02  1.32584e-01
2
# CELL(abcABC):   37.69329    37.69329    37.69329    90.00000    90.00000    90.00000  Step:         245  Bead:       0 positions{angstrom}  cell{angstrom}
       H  3.74080e-01  1.14205e-01 -1.75164e-01
       H -2.71671e-01 -6.34332e-02  9.44931e-02
2
# CELL(abcABC):   37.69329    37.69329    37.69329    90.00000    90.00000    90.00000  Step:         250  Bead:       0 positions{angstrom}  cell{angstrom}
       H  3.27354e-01  1.02684e-01 -2.14147e-01
       H -2.22865e-01 -3.71040e-02  7.35267e-02
2
# CELL(abcABC):   37.69329    37.69329    37.69329    90.00000    90.00000    90.00000  Step:         255  Bead:       0 positions{angstrom}  cell{angstrom}
       H  3.19647e-01  1.06949e-01 -2.63869e-01
       H -2.05610e-01 -2.53866e-02  1.15445e-01
2
# CELL(abcABC):   37.69329    37.69329    37.69329    90.00000    90.00000    90.00000  Step:         260  Bead:       0 positions{angstrom}  cell{angstrom}
       H  3.20694e-01  1.25030e-01 -3.41950e-01
       H -1.88701e-01 -4.26507e-02  1.54677e-01
2
# CELL(abcABC):   37.69329    37.69329    37.69329    90.00000    90.00000    90.00000  Step:         265  Bead:       0 positions{angstrom}  cell{angstrom}
       H  3.02038e-01  1.29814e-01 -4.28075e-01
       H -1.64792e-01 -4.36928e-02  2.01227e-01
2
# CELL(abcABC):   37.69329    37.69329    37.69329    90.00000    90.00000    90.00000  Step:         270  Bead:       0 positions{angstrom}  cell{angstrom}
       H  2.93060e-01  1.19199e-01 -4.08528e-01
       H -1.34455e-01 -2.18365e-02  2.36260e-01
2
# CELL(abcABC):   37.69329    37.69329    37.69329    90.00000    90.00000    90.00000  Step:         275  Bead:       0 positions{angstrom}  cell{angstrom}
       H  2.03869e-01  9.17858e-02 -3.90518e-01
       H -6.54978e-02  1.13628e-02  2.38472e-01
2
# CELL(abcABC):   37.69329    37.69329    37.69329    90.00000    90.00000    90.00000  Step:         280  Bead:       0 positions{angstrom}  cell{angstrom}
       H  1.56776e-01  4.78985e-02 -4.23175e-01
       H -4.57349e-02  1.88661e-02  2.48030e-01
2
# CELL(abcABC):   37.69329    37.69329    37.69329    90.00000    90.00000    90.00000  Step:         285  Bead:       0 positions{angstrom}  cell{angstrom}
       H  1.29700e-01 -2.23395e-02 -4.51981e-01
       H -4.02541e-02  5.55021e-03  2.78791e-01
2
# CELL(abcABC):   37.69329    37.69329    37.69329    90.00000    90.00000    90.00000  Step:         290  Bead:       0 positions{angstrom}  cell{angstrom}
       H  8.26399e-02 -1.00811e-01 -4.55956e-01
       H -1.66017e-02 -5.40547e-03  3.02258e-01
2
# CELL(abcABC):   37.69329    37.69329    37.69329    90.00000    90.00000    90.00000  Step:         295  Bead:       0 positions{angstrom}  cell{angstrom}
       H  4.29929e-02 -1.15386e-01 -4.21466e-01
       H -1.00754e-03  1.17554e-02  3.15487e-01
2
# CELL(abcABC):   37.69329    37.69329    37.69329    90.00000    90.00000    90.00000  Step:         300  Bead:       0 positions{angstrom}  cell{angstrom}
       H -1.03623e-02 -9.40400e-02 -4.15060e-01
       H  1.41809e-03  3.78608e-02  3.20659e-01
2
# CELL(abcABC):   37.69329    37.69329    37.69329    90.00000    90.00000    90.00000  Step:         305  Bead:       0 positions{angstrom}  cell{angstrom}
       H -1.24073e-02 -5.81736e-02 -4.03801e-01
       H -2.86858e-03  3.71801e-02  2.70025e-01
2
# CELL(abcABC):   37.69329    37.69329    37.69329    90.00000    90.00000    90.00000  Step:         310  Bead:       0 positions{angstrom}  cell{angstrom}
       H -3.47126e-02 -3.86162e-02 -4.26342e-01
       H -2.43799e-02  4.51164e-02  2.66930e-01
2
# CELL(abcABC):   37.69329    37.69329    37.69329    90.00000    90.00000    90.00000  Step:         315  Bead:       0 positions{angstrom}  cell{angstrom}
       H -8.25218e-02 -1.89500e-02 -4.27682e-01
       H -6.63171e-02  4.80606e-02  2.79868e-01
2
# CELL(abcABC):   37.69329    37.69329    37.69329    90.00000    90.00000    90.00000  Step:         320  Bead:       0 positions{angstrom}  cell{angstrom}
       H -1.38990e-01 -8.00679e-03 -4.41238e-01
       H -1.37175e-01  5.89798e-02  2.53877e-01
2
# CELL(abcABC):   37.69329    37.69329    37.69329    90.00000    90.00000    90.00000  Step:         325  Bead:       0 positions{angstrom}  cell{angstrom}
       H -1.87657e-01 -1.79883e-02 -4.63155e-01
       H -1.73689e-01  7.00146e-02  2.44622e-01
2
# CELL(abcABC):   37.69329    37.69329    37.69329    90.00000    90.00000    90.00000  Step:         330  Bead:       0 positions{angstrom}  cell{angstrom}
       H -2.05986e-01 -3.31871e-02 -4.23468e-01
       H -1.95336e-01  1.16169e-01  2.77430e-01
2
# CELL(abcABC):   37.69329    37.69329    37.69329    90.00000    90.00000    90.00000  Step:         335  Bead:       0 positions{angstrom}  cell{angstrom}
       H -1.84699e-01 -5.04500e-02 -3.89750e-01
       H -1.88062e-01  1.73418e-01  3.42329e-01
2
# CELL(abcABC):   37.69329    37.69329    37.69329    90.00000    90.00000    90.00000  Step:         340  Bead:       0 positions{angstrom}  cell{angstrom}
       H -1.50797e-01 -3.18480e-02 -3.60931e-01
       H -1.59365e-01  1.62413e-01  3.76875e-01
2
# CELL(abcABC):   37.69329    37.69329    37.69329    90.00000    90.00000    90.00000  Step:         345  Bead:       0 positions{angstrom}  cell{angstrom}
       H -9.81348e-02  1.35399e-02 -3.75049e-01
       H -9.99571e-02  1.70134e-01  3.57714e-01
2
# CELL(abcABC):   37.69329    37.69329    37.69329    90.00000    90.00000    90.00000  Step:         350  Bead:       0 positions{angstrom}  cell{angstrom}
       H -3.00489e-02  8.97363e-02 -4.18447e-01
       H -6.17043e-02  1.88055e-01  2.76713e-01
2
# CELL(abcABC):   37.69329    37.69329    37.69329    90.00000    90.00000    90.00000  Step:         355  Bead:       0 positions{angstrom}  cell{angstrom}
       H  3.69039e-02  1.05177e-01 -4.60639e-01
       H -2.81472e-02  1.88183e-01  2.45633e-01
2
# CELL(abcABC):   37.69329    37.69329    37.69329    90.00000    90.00000    90.00000  Step:         360  Bead:       0 positions{angstrom}  cell{angstrom}
       H  1.07086e-01  1.33021e-01 -5.10331e-01
       H -1.56947e-02  1.62935e-01  1.94751e-01
2
# CELL(abcABC):   37.69329    37.69329    37.69329    90.00000    90.00000    90.00000  Step:         365  Bead:       0 positions{angstrom}  cell{angstrom}
       H  1.56073e-01  1.42018e-01 -5.45039e-01
       H -2.00097e-03  1.47373e-01  1.20227e-01
2
# CELL(abcABC):   37.69329    37.69329    37.69329    90.00000    90.00000    90.00000  Step:         370  Bead:       0 positions{angstrom}  cell{angstrom}
       H  2.20685e-01  1.57902e-01 -5.55754e-01
       H  4.36338e-02  1.13209e-01  8.35912e-02
2
# CELL(abcABC):   37.69329    37.69329    37.69329    90.00000    90.00000    90.00000  Step:         375  Bead:       0 positions{angstrom}  cell{angstrom}
       H  2.93267e-01  1.55296e-01 -5.25329e-01
       H  5.74070e-02  8.00037e-02  7.52810e-02
2
# CELL(abcABC):   37.69329    37.69329    37.69329    90.00000    90.00000    90.00000  Step:         380  Bead:       0 positions{angstrom}  cell{angstrom}
       H  3.41689e-01  1.58715e-01 -4.94295e-01
       H  5.15819e-02  4.71993e-02  1.01008e-01
2
# CELL(abcABC):   37.69329    37.69329    37.69329    90.00000    90.00000    90.00000  Step:         385  Bead:       0 positions{angstrom}  cell{angstrom}
       H  3.94826e-01  1.85769e-01 -4.92155e-01
       H  1.65293e-02 -4.03062e-03  1.39802e-01
2
# CELL(abcABC):   37.69329    37.69329    37.69329    90.00000    90.00000    90.00000  Step:         390  Bead:       0 positions{angstrom}  cell{angstrom}
       H  3.64819e-01  1.87890e-01 -4.21758e-01
       H -2.29631e-03 -2.08338e-02  1.69900e-01
2
# CELL(abcABC):   37.69329    37.69329    37.69329    90.00000    90.00000    90.00000  Step:         395  Bead:       0 positions{angstrom}  cell{angstrom}
       H  2.99479e-01  1.62340e-01 -3.72966e-01
       H -4.78399e-02 -6.02694e-02  1.80117e-01
2
# CELL(abcABC):   37.69329    37.69329    37.69329    90.00000    90.00000    90.00000  Step:         400  Bead:       0 positions{angstrom}  cell{angstrom}
       H  2.72058e-01  1.62926e-01 -3.54624e-01
       H -9.12102e-02 -9.14301e-02  2.26517e-01
2
# CELL(abcABC):   37.69329    37.69329    37.69329    90.00000    90.00000    90.00000  Step:         405  Bead:       0 positions{angstrom}  cell{angstrom}
       H  3.06101e-01  1.67599e-01 -3.07625e-01
       H -1.19580e-01 -1.18246e-01  2.43555e-01
2
# CELL(abcABC):   37.69329    37.69329    37.69329    90.00000    90.00000    90.00000  Step:         410  Bead:       0 positions{angstrom}  cell{angstrom}
       H  3.10981e-01  1.49883e-01 -2.41107e-01
       H -1.15404e-01 -1.84382e-01  2.42858e-01
2
# CELL(abcABC):   37.69329    37.69329    37.69329    90.00000    90.00000    90.00000  Step:         415  Bead:       0 positions{angstrom}  cell{angstrom}
       H  3.24654e-01  1.48248e-01 -1.93278e-01
       H -1.15785e-01 -1.89649e-01  2.82736e-01
2
# CELL(abcABC):   37.69329    37.69329    37.69329    90.00000    90.00000    90.00000  Step:         420  Bead:       0 positions{angstrom}  cell{angstrom}
       H  3.36602e-01  1.55545e-01 -1.88859e-01
       H -1.21321e-01 -1.69505e-01  2.76878e-01
2
# CELL(abcABC):   37.69329    37.69329    37.69329    90.00000    90.00000    90.00000  Step:         425  Bead:       0 positions{angstrom}  cell{angstrom}
       H  3.12800e-01  1.25070e-01 -1.87851e-01
       H -1.17795e-01 -1.11203e-01  2.67855e-01
2
# CELL(abcABC):   37.69329    37.69329    37.69329    90.00000    90.00000    90.00000  Step:         430  Bead:       0 positions{angstrom}  cell{angstrom}
       H  2.80259e-01  1.69324e-01 -1.74706e-01
       H -1.50341e-01 -7.17228e-02  2.89312e-01
2
# CELL(abcABC):   37.69329    37.69329    37.69329    90.00000    90.00000    90.00000  Step:         435  Bead:       0 positions{angstrom}  cell{angstrom}
       H  3.02729e-01  2.07845e-01 -1.82890e-01
       H -1.88220e-01 -5.95080e-02  2.93151e-01
2
# CELL(abcABC):   37.69329    37.69329    37.69329    90.00000    90.00000    90.00000  Step:         440  Bead:       0 positions{angstrom}  cell{angstrom}
       H  3.45805e-01  2.24668e-01 -1.80295e-01
       H -1.92905e-01 -2.93480e-02  2.89731e-01
2
# CELL(abcABC):   37.69329    37.69329    37.69329    90.00000    90.00000    90.00000  Step:         445  Bead:       0 positions{angstrom}  cell{angstrom}
       H  3.59410e-01  2.31268e-01 -1.73195e-01
       H -1.75515e-01  9.02547e-03  2.89916e-01
2
# CELL(abcABC):   37.69329    37.69329    37.69329    90.00000    90.00000    90.00000  Step:         450  Bead:       0 positions{angstrom}  cell{angstrom}
       H  3.63912e-01  2.26115e-01 -1.68135e-01
       H -1.29950e-01  6.54236e-02  2.73742e-01
2
# CELL(abcABC):   37.69329    37.69329    37.69329    90.00000    90.00000    90.00000  Step:         455  Bead:       0 positions{angstrom}  cell{angstrom}
       H  3.87521e-01  2.17496e-01 -1.93099e-01
       H -1.16557e-01  8.56684e-02  2.45271e-01
2
# CELL(abcABC):   37.69329    37.69329    37.69329    90.00000    90.00000    90.00000  Step:         460  Bead:       0 positions{angstrom}  cell{angstrom}
       H  3.72575e-01  2.07940e-01 -1.95554e-01
       H -1.34312e-01  1.07472e-01  2.01372e-01
2
# CELL(abcABC):   37.69329    37.69329    37.69329    90.00000    90.00000    90.00000  Step:         465  Bead:       0 positions{angstrom}  cell{angstrom}
       H  3.62651e-01  2.39340e-01 -1.85514e-01
       H -1.88266e-01  1.04022e-01  1.87617e-01
2
# CELL(abcABC):   37.69329    37.69329    37.69329    90.00000    90.00000    90.00000  Step:         470  Bead:       0 positions{angstrom}  cell{angstrom}
       H  3.48088e-01  2.48950e-01 -1.89689e-01
       H -2.31751e-01  7.01545e-02  2.10122e-01
2
# CELL(abcABC):   37.69329    37.69329    37.69329    90.00000    90.00000    90.00000  Step:         475  Bead:       0 positions{angstrom}  cell{angstrom}
       H  2.97380e-01  2.52717e-01 -1.77254e-01
       H -2.78368e-01  5.13075e-02  2.37416e-01
2
# CELL(abcABC):   37.69329    37.69329    37.69329    90.00000    90.00000    90.00000  Step:         480  Bead:       0 positions{angstrom}  cell{angstrom}
       H  2.82071e-01  2.65675e-01 -1.67671e-01
       H -3.20693e-01  4.03044e-02  2.55238e-01
2
# CELL(abcABC):   37.69329    37.69329    37.69329    90.00000    90.00000    90.00000  Step:         485  Bead:       0 positions{angstrom}  cell{angstrom}
       H  2.50417e-01  2.98358e-01 -1.47504e-01
       H -2.85575e-01  8.55976e-02  2.00342e-01
2
# CELL(abcABC):   37.69329    37.69329    37.69329    90.00000    90.00000    90.00000  Step:         490  Bead:       0 positions{angstrom}  cell{angstrom}
       H  2.82249e-01  3.53324e-01 -1.16934e-01
       H -2.57380e-01  9.63396e-02  1.71299e-01
2
# CELL(abcABC):   37.69329    37.69329    37.69329    90.00000    90.00000    90.00000  Step:         495  Bead:       0 positions{angstrom}  cell{angstrom}
       H  3.59362e-01  4.16109e-01 -8.57816e-02
       H -2.19016e-01  8.20109e-02  1.94473e-01
2
# CELL(abcABC):   37.69329    37.69329    37.69329    90.00000    90.00000    90.00000  Step:         500  Bead:       0 positions{angstrom}  cell{angstrom}
       H  3.85158e-01  4.49104e-01 -7.24836e-02
       H -1.87123e-01  4.37744e-02  2.07369e-01
2
# CELL(abcABC):   37.69329    37.69329    37.69329    90.00000    90.00000    90.00000  Step:         505  Bead:       0 positions{angstrom}  cell{angstrom}
       H  3.70261e-01  4.44181e-01 -7.61379e-02
       H -2.15814e-01 -1.06665e-02  1.98856e-01
2
# CELL(abcABC):   37.69329    37.69329    37.69329    90.00000    90.00000    90.00000  Step:         510  Bead:       0 positions{angstrom}  cell{angstrom}
       H  3.58878e-01  4.10014e-01 -5.70966e-02
       H -2.22079e-01 -1.73403e-02  2.12358e-01
2
# CELL(abcABC):   37.69329    37.69329    37.69329    90.00000    90.00000    90.00000  Step:         515  Bead:       0 positions{angstrom}  cell{angstrom}
       H  3.23230e-01  3.68035e-01 -2.54498e-02
       H -2.06840e-01  2.15757e-02  2.19822e-01
2
# CELL(abcABC):   37.69329    37.69329    37.69329    90.00000    90.00000    90.00000  Step:         520  Bead:       0 positions{angstrom}  cell{angstrom}
       H  2.91575e-01  3.74656e-01 -1.85108e-03
       H -2.17511e-01  6.59104e-02  1.81443e-01
2
# CELL(abcABC):   37.69329    37.69329    37.69329    90.00000    90.00000    90.00000  Step:         525  Bead:       0 positions{angstrom}  cell{angstrom}
       H  2.78125e-01  4.14830e-01  1.35120e-02
       H -2.47669e-01  1.03976e-02  1.77927e-01
2
# CELL(abcABC):   37.69329    37.69329    37.69329    90.00000    90.00000    90.00000  Step:         530  Bead:       0 positions{angstrom}  cell{angstrom}
       H  2.91561e-01  4.23038e-01  3.44003e-02
       H -2.43802e-01 -2.39908e-02  1.92008e-01
2
# CELL(abcABC):   37.69329    37.69329    37.69329    90.00000    90.00000    90.00000  Step:         535  Bead:       0 positions{angstrom}  cell{angstrom}
       H  2.87880e-01  4.03001e-01  6.92898e-02
       H -2.48490e-01 -1.21455e-01  2.10202e-01
2
# CELL(abcABC):   37.69329    37.69329    37.69329    90.00000    90.00000    90.00000  Step:         540  Bead:       0 positions{angstrom}  cell{angstrom}
       H  2.51476e-01  3.80374e-01  4.71981e-02
       H -2.28969e-01 -1.82917e-01  2.11203e-01
2
# CELL(abcABC):   37.69329    37.69329    37.69329    90.00000    90.00000    90.00000  Step:         545  Bead:       0 positions{angstrom}  cell{angstrom}
       H  1.94873e-01  3.50380e-01  2.52308e-02
       H -1.63484e-01 -1.94297e-01  2.01144e-01
2
# CELL(abcABC):   37.69329    37.69329    37.69329    90.00000    90.00000    90.00000  Step:         550  Bead:       0 positions{angstrom}  cell{angstrom}
       H  8.22254e-02  3.65974e-01  2.53545e-03
       H -9.82878e-02 -2.24693e-01  1.74846e-01
2
# CELL(abcABC):   37.69329    37.69329    37.69329    90.00000    90.00000    90.00000  Step:         555  Bead:       0 positions{angstrom}  cell{angstrom}
       H  2.37845e-02  4.32955e-01 -1.40022e-03
       H -4.28878e-02 -3.08417e-01  1.75813e-01
2
# CELL(abcABC):   37.69329    37.69329    37.69329    90.00000    90.00000    90.00000  Step:         560  Bead:       0 positions{angstrom}  cell{angstrom}
       H  3.97106e-04  4.36152e-01 -1.19702e-02
       H -5.53028e-02 -3.41141e-01  1.84324e-01
2
# CELL(abcABC):   37.69329    37.69329    37.69329    90.00000    90.00000    90.00000  Step:         565  Bead:       0 positions{angstrom}  cell{angstrom}
       H  3.82134e-03  3.65071e-01  3.25978e-02
       H -7.79702e-02 -3.33841e-01  1.76696e-01
2
# CELL(abcABC):   37.69329    37.69329    37.69329    90.00000    90.00000    90.00000  Step:         570  Bead:       0 positions{angstrom}  cell{angstrom}
       H  2.21744e-02  3.37341e-01  8.63769e-02
       H -7.23442e-02 -3.05742e-01  1.89310e-01
2
# CELL(abcABC):   37.69329    37.69329    37.69329    90.00000    90.00000    90.00000  Step:         575  Bead:       0 positions{angstrom}  cell{angstrom}
       H  6.30458e-02  3.32952e-01  1.06716e-01
       H -4.31378e-02 -3.36566e-01  2.12479e-01
2
# CELL(abcABC):   37.69329    37.69329    37.69329    90.00000    90.00000    90.00000  Step:         580  Bead:       0 positions{angstrom}  cell{angstrom}
       H  1.11810e-01  3.58592e-01  1.16501e-01
       H  1.33356e-02 -3.49393e-01  2.46804e-01
2
# CELL(abcABC):   37.69329    37.69329    37.69329    90.00000    90.00000    90.00000  Step:         585  Bead:       0 positions{angstrom}  cell{angstrom}