2
# CELL(abcABC):   37.69329    37.69329    37.69329    90.00000    90.00000    90.00000  Step:           0  Bead:       2 positions{angstrom}  cell{angstrom}
       H  2.68822e-01  0.00000e+00  0.00000e+00
       H -2.68822e-01  1.58753e-01  5.29177e-03
2
# CELL(abcABC):   37.69329    37.69329    37.69329    90.00000    90.00000    90.00000  Step:           5  Bead:       2 positions{angstrom}  cell{angstrom}
       H  3.33047e-01 -1.02903e-02 -4.00694e-03
       H -3.71981e-01  1.16828e-01 -3.10916e-03
2
# CELL(abcABC):   37.69329    37.69329    37.69329    90.00000    90.00000    90.00000  Step:          10  Bead:       2 positions{angstrom}  cell{angstrom}
       H  4.12228e-01 -1.15031e-01 -9.34057e-03
       H -4.50103e-01  6.14551e-02  1.57556e-02
2
# CELL(abcABC):   37.69329    37.69329    37.69329    90.00000    90.00000    90.00000  Step:          15  Bead:       2 positions{angstrom}  cell{angstrom}
       H  3.99877e-01 -1.82700e-01 -8.03076e-03
       H -4.17029e-01 -1.04294e-02 -5.10329e-03
2
# CELL(abcABC):   37.69329    37.69329    37.69329    90.00000    90.00000    90.00000  Step:          20  Bead:       2 positions{angstrom}  cell{angstrom}
       H  3.47850e-01 -1.60165e-01  1.39974e-02
       H -3.41433e-01 -1.14313e-01  2.41369e-02
2
# CELL(abcABC):   37.69329    37.69329    37.69329    90.00000    90.00000    90.00000  Step:          25  Bead:       2 positions{angstrom}  cell{angstrom}
       H  2.89112e-01 -1.37546e-01  6.47507e-02
       H -2.60880e-01 -1.75375e-01  5.50487e-02
2
# CELL(abcABC):   37.69329    37.69329    37.69329    90.00000    90.00000    90.00000  Step:          30  Bead:       2 positions{angstrom}  cell{angstrom}
       H  3.66233e-01 -1.15277e-01  8.87134e-02
       H -2.91622e-01 -1.89187e-01  1.01092e-01
2
# CELL(abcABC):   37.69329    37.69329    37.69329    90.00000    90.00000    90.00000  Step:          35  Bead:       2 positions{angstrom}  cell{angstrom}
       H  4.52314e-01 -1.18627e-01  8.28128e-02
       H -3.35422e-01 -1.33086e-01  1.20352e-01
2
# CELL(abcABC):   37.69329    37.69329    37.69329    90.00000    90.00000    90.00000  Step:          40  Bead:       2 positions{angstrom}  cell{angstrom}
       H  4.80737e-01 -1.12051e-01  6.12599e-02
       H -3.61762e-01 -4.99119e-02  1.11629e-01
2
# CELL(abcABC):   37.69329    37.69329    37.69329    90.00000    90.00000    90.00000  Step:          45  Bead:       2 positions{angstrom}  cell{angstrom}
       H  4.28673e-01 -1.08512e-01  8.64985e-03
       H -3.28186e-01  9.96522e-03  6.85176e-02
2
# CELL(abcABC):   37.69329    37.69329    37.69329    90.00000    90.00000    90.00000  Step:          50  Bead:       2 positions{angstrom}  cell{angstrom}
       H  3.21925e-01 -9.04631e-02 -1.88499e-02
       H -2.49201e-01  3.62692e-02 -6.97154e-03
2
# CELL(abcABC):   37.69329    37.69329    37.69329    90.00000    90.00000    90.00000  Step:          55  Bead:       2 positions{angstrom}  cell{angstrom}
       H  3.33493e-01 -7.43446e-02 -8.40291e-02
       H -2.74728e-01  8.69385e-02  2.00332e-02
2
# CELL(abcABC):   37.69329    37.69329    37.69329    90.00000    90.00000    90.00000  Step:          60  Bead:       2 positions{angstrom}  cell{angstrom}
       H  3.84966e-01 -7.64602e-02 -1.25192e-01
       H -3.70373e-01  1.62755e-01  8.53468e-02
2
# CELL(abcABC):   37.69329    37.69329    37.69329    90.00000    90.00000    90.00000  Step:          65  Bead:       2 positions{angstrom}  cell{angstrom}
       H  3.95007e-01 -4.68620e-02 -1.02785e-01
       H -4.38951e-01  2.04559e-01  1.63861e-01
2
# CELL(abcABC):   37.69329    37.69329    37.69329    90.00000    90.00000    90.00000  Step:          70  Bead:       2 positions{angstrom}  cell{angstrom}
       H  3.27211e-01 -2.89931e-02 -7.40943e-02
       H -4.15169e-01  1.99706e-01  2.16528e-01
2
# CELL(abcABC):   37.69329    37.69329    37.69329    90.00000    90.00000    90.00000  Step:          75  Bead:       2 positions{angstrom}  cell{angstrom}
       H  2.02142e-01 -1.09511e-02 -2.46977e-02
       H -3.25148e-01  1.42801e-01  2.34306e-01
2
# CELL(abcABC):   37.69329    37.69329    37.69329    90.00000    90.00000    90.00000  Step:          80  Bead:       2 positions{angstrom}  cell{angstrom}
       H  1.79550e-01  2.34128e-02 -3.26022e-02
       H -3.51410e-01  1.11475e-01  2.66215e-01
2
# CELL(abcABC):   37.69329    37.69329    37.69329    90.00000    90.00000    90.00000  Step:          85  Bead:       2 positions{angstrom}  cell{angstrom}
       H  2.39770e-01  3.55194e-02 -6.53273e-02
       H -4.25069e-01  7.35490e-02  2.95367e-01
2
# CELL(abcABC):   37.69329    37.69329    37.69329    90.00000    90.00000    90.00000  Step:          90  Bead:       2 positions{angstrom}  cell{angstrom}
       H  2.88026e-01  7.99560e-02 -1.18577e-01
       H -4.47293e-01  2.71124e-02  2.48134e-01
2
# CELL(abcABC):   37.69329    37.69329    37.69329    90.00000    90.00000    90.00000  Step:          95  Bead:       2 positions{angstrom}  cell{angstrom}
       H  2.84995e-01  1.24825e-01 -1.34160e-01
       H -3.81898e-01 -7.64103e-03  1.92594e-01
2
# CELL(abcABC):   37.69329    37.69329    37.69329    90.00000    90.00000    90.00000  Step:         100  Bead:       2 positions{angstrom}  cell{angstrom}
       H  2.35878e-01  1.11701e-01 -1.09556e-01
       H -2.80688e-01  6.24265e-03  1.59182e-01
2
# CELL(abcABC):   37.69329    37.69329    37.69329    90.00000    90.00000    90.00000  Step:         105  Bead:       2 positions{angstrom}  cell{angstrom}
       H  2.74479e-01  1.17822e-01 -1.39236e-01
       H -3.02734e-01  4.97247e-02  1.81675e-01
2
# CELL(abcABC):   37.69329    37.69329    37.69329    90.00000    90.00000    90.00000  Step:         110  Bead:       2 positions{angstrom}  cell{angstrom}
       H  4.08826e-01  1.24455e-01 -1.98581e-01
       H -3.56127e-01  8.55742e-02  2.21258e-01
2
# CELL(abcABC):   37.69329    37.69329    37.69329    90.00000    90.00000    90.00000  Step:         115  Bead:       2 positions{angstrom}  cell{angstrom}
       H  4.46013e-01  1.11052e-01 -2.24255e-01
       H -3.80509e-01  1.28276e-01  2.17120e-01
2
# CELL(abcABC):   37.69329    37.69329    37.69329    90.00000    90.00000    90.00000  Step:         120  Bead:       2 positions{angstrom}  cell{angstrom}
       H  3.93621e-01  9.18450e-02 -1.99158e-01
       H -3.23555e-01  1.04934e-01  1.87406e-01
2
# CELL(abcABC):   37.69329    37.69329    37.69329    90.00000    90.00000    90.00000  Step:         125  Bead:       2 positions{angstrom}  cell{angstrom}
       H  2.88148e-01  7.94589e-02 -1.61501e-01
       H -2.63435e-01  7.19968e-02  1.15228e-01
2
# CELL(abcABC):   37.69329    37.69329    37.69329    90.00000    90.00000    90.00000  Step:         130  Bead:       2 positions{angstrom}  cell{angstrom}
       H  2.74259e-01  7.59357e-02 -1.64562e-01
       H -2.65348e-01  4.91566e-02  1.32902e-01
2
# CELL(abcABC):   37.69329    37.69329    37.69329    90.00000    90.00000    90.00000  Step:         135  Bead:       2 positions{angstrom}  cell{angstrom}
       H  3.43078e-01  8.05279e-02 -1.96021e-01
       H -3.50284e-01  4.50664e-02  1.37446e-01
2
# CELL(abcABC):   37.69329    37.69329    37.69329    90.00000    90.00000    90.00000  Step:         140  Bead:       2 positions{angstrom}  cell{angstrom}
       H  3.92104e-01  8.02724e-02 -1.86075e-01
       H -3.94475e-01  5.95718e-02  1.30942e-01
2
# CELL(abcABC):   37.69329    37.69329    37.69329    90.00000    90.00000    90.00000  Step:         145  Bead:       2 positions{angstrom}  cell{angstrom}
       H  3.74853e-01  1.02094e-01 -1.33499e-01
       H -3.49387e-01  3.51659e-02  1.13152e-01
2
# CELL(abcABC):   37.69329    37.69329    37.69329    90.00000    90.00000    90.00000  Step:         150  Bead:       2 positions{angstrom}  cell{angstrom}
       H  2.97890e-01  1.01531e-01 -8.85731e-02
       H -2.96317e-01 -1.78315e-02  1.10476e-01
2
# CELL(abcABC):   37.69329    37.69329    37.69329    90.00000    90.00000    90.00000  Step:         155  Bead:       2 positions{angstrom}  cell{angstrom}
       H  2.51347e-01  5.79581e-02 -6.06570e-02
       H -3.24529e-01 -4.70085e-02  1.48916e-01
2
# CELL(abcABC):   37.69329    37.69329    37.69329    90.00000    90.00000    90.00000  Step:         160  Bead:       2 positions{angstrom}  cell{angstrom}
       H  2.50619e-01  3.71375e-02 -7.22504e-02
       H -4.20658e-01 -4.85933e-02  2.03187e-01
2
# CELL(abcABC):   37.69329    37.69329    37.69329    90.00000    90.00000    90.00000  Step:         165  Bead:       2 positions{angstrom}  cell{angstrom}
       H  2.88529e-01  5.97908e-02 -6.05502e-02
       H -5.27225e-01 -7.80899e-02  2.50172e-01
2
# CELL(abcABC):   37.69329    37.69329    37.69329    90.00000    90.00000    90.00000  Step:         170  Bead:       2 positions{angstrom}  cell{angstrom}
       H  2.49466e-01  6.86060e-02 -7.18180e-02
       H -5.57597e-01 -4.82221e-02  2.57800e-01
2
# CELL(abcABC):   37.69329    37.69329    37.69329    90.00000    90.00000    90.00000  Step:         175  Bead:       2 positions{angstrom}  cell{angstrom}
       H  1.80765e-01  3.51458e-02 -1.05834e-01
       H -5.09312e-01 -5.91477e-02  2.70634e-01
2
# CELL(abcABC):   37.69329    37.69329    37.69329    90.00000    90.00000    90.00000  Step:         180  Bead:       2 positions{angstrom}  cell{angstrom}
       H  9.31477e-02  2.86272e-02 -1.39384e-01
       H -4.21225e-01 -7.48582e-02  2.31483e-01
2
# CELL(abcABC):   37.69329    37.69329    37.69329    90.00000    90.00000    90.00000  Step:         185  Bead:       2 positions{angstrom}  cell{angstrom}
       H  1.02417e-01  5.56667e-02 -2.02776e-01
       H -3.86047e-01 -1.10161e-01  2.14451e-01
2
# CELL(abcABC):   37.69329    37.69329    37.69329    90.00000    90.00000    90.00000  Step:         190  Bead:       2 positions{angstrom}  cell{angstrom}
       H  1.55040e-01  1.05635e-01 -2.68962e-01
       H -3.90823e-01 -1.39756e-01  2.31147e-01
2
# CELL(abcABC):   37.69329    37.69329    37.69329    90.00000    90.00000    90.00000  Step:         195  Bead:       2 positions{angstrom}  cell{angstrom}
       H  1.70256e-01  1.47084e-01 -2.37904e-01
       H -3.49011e-01 -1.28613e-01  2.39603e-01
2
# CELL(abcABC):   37.69329    37.69329    37.69329    90.00000    90.00000    90.00000  Step:         200  Bead:       2 positions{angstrom}  cell{angstrom}
       H  1.43538e-01  1.80108e-01 -1.79111e-01
       H -2.50974e-01 -1.01518e-01  2.28104e-01
2
# CELL(abcABC):   37.69329    37.69329    37.69329    90.00000    90.00000    90.00000  Step:         205  Bead:       2 positions{angstrom}  cell{angstrom}
       H  1.67229e-01  2.12567e-01 -1.43408e-01
       H -1.87440e-01 -1.04102e-01  2.18720e-01
2
# CELL(abcABC):   37.69329    37.69329    37.69329    90.00000    90.00000    90.00000  Step:         210  Bead:       2 positions{angstrom}  cell{angstrom}
       H  2.32344e-01  2.55082e-01 -2.14478e-01
       H -1.92306e-01 -1.41456e-01  2.84223e-01
2
# CELL(abcABC):   37.69329    37.69329    37.69329    90.00000    90.00000    90.00000  Step:         215  Bead:       2 positions{angstrom}  cell{angstrom}
       H  2.68575e-01  2.49244e-01 -2.64422e-01
       H -1.51696e-01 -1.54742e-01  3.26592e-01
2
# CELL(abcABC):   37.69329    37.69329    37.69329    90.00000    90.00000    90.00000  Step:         220  Bead:       2 positions{angstrom}  cell{angstrom}
       H  2.69799e-01  2.23956e-01 -2.66346e-01
       H -1.02174e-01 -1.13292e-01  3.01877e-01
2
# CELL(abcABC):   37.69329    37.69329    37.69329    90.00000    90.00000    90.00000  Step:         225  Bead:       2 positions{angstrom}  cell{angstrom}
       H  2.37221e-01  2.17274e-01 -2.32882e-01
       H -6.75138e-02 -6.89230e-02  2.71800e-01
2
# CELL(abcABC):   37.69329    37.69329    37.69329    90.00000    90.00000    90.00000  Step:         230  Bead:       2 positions{angstrom}  cell{angstrom}
       H  1.81917e-01  2.14290e-01 -2.10860e-01
       H -7.86293e-02 -5.00289e-02  2.80356e-01
2
# CELL(abcABC):   37.69329    37.69329    37.69329    90.00000    90.00000    90.00000  Step:         235  Bead:       2 positions{angstrom}  cell{angstrom}
       H  1.58321e-01  2.25537e-01 -2.31597e-01
       H -1.55163e-01 -5.47547e-02  3.16635e-01
2
# CELL(abcABC):   37.69329    37.69329    37.69329    90.00000    90.00000    90.00000  Step:         240  Bead:       2 positions{angstrom}  cell{angstrom}
       H  1.44434e-01  2.49744e-01 -2.70955e-01
       H -2.13230e-01 -3.79613e-02  3.47242e-01
2
# CELL(abcABC):   37.69329    37.69329    37.69329    90.00000    90.00000    90.00000  Step:         245  Bead:       2 positions{angstrom}  cell{angstrom}
       H  1.01659e-01  2.26903e-01 -2.72098e-01
       H -2.19838e-01 -7.95546e-04  3.25269e-01
2
# CELL(abcABC):   37.69329    37.69329    37.69329    90.00000    90.00000    90.00000  Step:         250  Bead:       2 positions{angstrom}  cell{angstrom}
       H  7.53363e-02  1.95669e-01 -2.57825e-01
       H -2.23534e-01 -1.32586e-02  3.39418e-01
2
# CELL(abcABC):   37.69329    37.69329    37.69329    90.00000    90.00000    90.00000  Step:         255  Bead:       2 positions{angstrom}  cell{angstrom}
       H  8.99894e-02  1.80917e-01 -2.67959e-01
       H -2.29657e-01 -3.88502e-02  3.37231e-01
2
# CELL(abcABC):   37.69329    37.69329    37.69329    90.00000    90.00000    90.00000  Step:         260  Bead:       2 positions{angstrom}  cell{angstrom}
       H  6.57571e-02  1.37465e-01 -2.80912e-01
       H -2.49536e-01 -8.37699e-02  3.51407e-01
2
# CELL(abcABC):   37.69329    37.69329    37.69329    90.00000    90.00000    90.00000  Step:         265  Bead:       2 positions{angstrom}  cell{angstrom}
       H -1.37450e-02  1.57180e-01 -2.66445e-01
       H -3.12761e-01 -8.62364e-02  3.91952e-01
2
# CELL(abcABC):   37.69329    37.69329    37.69329    90.00000    90.00000    90.00000  Step:         270  Bead:       2 positions{angstrom}  cell{angstrom}
       H -8.68988e-02  1.78423e-01 -2.37882e-01
       H -3.38310e-01 -8.61345e-02  3.84469e-01
2
# CELL(abcABC):   37.69329    37.69329    37.69329    90.00000    90.00000    90.00000  Step:         275  Bead:       2 positions{angstrom}  cell{angstrom}
       H -1.37020e-01  1.75993e-01 -1.98421e-01
       H -3.57264e-01 -6.10113e-02  3.81922e-01
2
# CELL(abcABC):   37.69329    37.69329    37.69329    90.00000    90.00000    90.00000  Step:         280  Bead:       2 positions{angstrom}  cell{angstrom}
       H -1.44568e-01  1.95639e-01 -1.54042e-01
       H -3.29046e-01 -3.13244e-02  4.21616e-01
2
# CELL(abcABC):   37.69329    37.69329    37.69329    90.00000    90.00000    90.00000  Step:         285  Bead:       2 positions{angstrom}  cell{angstrom}
       H -6.98966e-02  2.51446e-01 -1.77286e-01
       H -2.88934e-01 -1.61910e-04  4.56666e-01
2
# CELL(abcABC):   37.69329    37.69329    37.69329    90.00000    90.00000    90.00000  Step:         290  Bead:       2 positions{angstrom}  cell{angstrom}
       H -2.07388e-02  2.59740e-01 -2.19483e-01
       H -2.94705e-01  2.89185e-02  4.37295e-01
2
# CELL(abcABC):   37.69329    37.69329    37.69329    90.00000    90.00000    90.00000  Step:         295  Bead:       2 positions{angstrom}  cell{angstrom}
       H -1.72498e-02  2.50989e-01 -2.52871e-01
       H -2.88678e-01  6.01422e-02  4.13280e-01
2
# CELL(abcABC):   37.69329    37.69329    37.69329    90.00000    90.00000    90.00000  Step:         300  Bead:       2 positions{angstrom}  cell{angstrom}
       H -7.32540e-02  1.80552e-01 -2.18617e-01
       H -2.67622e-01  9.12817e-02  3.72802e-01
2
# CELL(abcABC):   37.69329    37.69329    37.69329    90.00000    90.00000    90.00000  Step:         305  Bead:       2 positions{angstrom}  cell{angstrom}
       H -1.04686e-01  1.27580e-01 -2.67777e-01
       H -2.55784e-01  6.80877e-02  3.63070e-01
2
# CELL(abcABC):   37.69329    37.69329    37.69329    90.00000    90.00000    90.00000  Step:         310  Bead:       2 positions{angstrom}  cell{angstrom}
       H -6.97799e-02  1.15662e-01 -3.40395e-01
       H -2.70411e-01 -2.43612e-03  4.25257e-01
2
# CELL(abcABC):   37.69329    37.69329    37.69329    90.00000    90.00000    90.00000  Step:         315  Bead:       2 positions{angstrom}  cell{angstrom}
       H -6.95919e-03  1.05737e-01 -3.51281e-01
       H -2.60059e-01 -4.82041e-02  4.45415e-01
2
# CELL(abcABC):   37.69329    37.69329    37.69329    90.00000    90.00000    90.00000  Step:         320  Bead:       2 positions{angstrom}  cell{angstrom}
       H  7.20284e-02  7.90506e-02 -3.13484e-01
       H -2.01192e-01 -9.37215e-02  4.16000e-01
2
# CELL(abcABC):   37.69329    37.69329    37.69329    90.00000    90.00000    90.00000  Step:         325  Bead:       2 positions{angstrom}  cell{angstrom}
       H  1.51694e-01  7.10759e-02 -2.67282e-01
       H -1.45476e-01 -1.02586e-01  3.18244e-01
2
# CELL(abcABC):   37.69329    37.69329    37.69329    90.00000    90.00000    90.00000  Step:         330  Bead:       2 positions{angstrom}  cell{angstrom}
       H  2.27339e-01  8.89968e-02 -2.75326e-01
       H -1.13170e-01 -1.19132e-01  2.64842e-01
2
# CELL(abcABC):   37.69329    37.69329    37.69329    90.00000    90.00000    90.00000  Step:         335  Bead:       2 positions{angstrom}  cell{angstrom}
       H  2.95678e-01  1.12557e-01 -2.96406e-01
       H -8.52867e-02 -1.55448e-01  2.17191e-01
2
# CELL(abcABC):   37.69329    37.69329    37.69329    90.00000    90.00000    90.00000  Step:         340  Bead:       2 positions{angstrom}  cell{angstrom}
       H  2.99116e-01  1.26344e-01 -3.01348e-01
       H -5.13512e-02 -1.72243e-01  1.63535e-01
2
# CELL(abcABC):   37.69329    37.69329    37.69329    90.00000    90.00000    90.00000  Step:         345  Bead:       2 positions{angstrom}  cell{angstrom}
       H  3.20122e-01  1.87526e-01 -2.76811e-01
       H -7.05136e-02 -1.73842e-01  1.42221e-01
2
# CELL(abcABC):   37.69329    37.69329    37.69329    90.00000    90.00000    90.00000  Step:         350  Bead:       2 positions{angstrom}  cell{angstrom}
       H  3.16981e-01  2.19176e-01 -2.62962e-01
       H -1.03380e-01 -1.57763e-01  1.68018e-01
2
# CELL(abcABC):   37.69329    37.69329    37.69329    90.00000    90.00000    90.00000  Step:         355  Bead:       2 positions{angstrom}  cell{angstrom}
       H  2.80921e-01  2.94164e-01 -2.22558e-01
       H -1.19026e-01 -1.45061e-01  2.21454e-01
2
# CELL(abcABC):   37.69329    37.69329    37.69329    90.00000    90.00000    90.00000  Step:         360  Bead:       2 positions{angstrom}  cell{angstrom}
       H  2.87747e-01  3.50807e-01 -1.62156e-01
       H -9.73589e-02 -9.86132e-02  2.58988e-01
2
# CELL(abcABC):   37.69329    37.69329    37.69329    90.00000    90.00000    90.00000  Step:         365  Bead:       2 positions{angstrom}  cell{angstrom}
       H  2.63155e-01  3.79202e-01 -1.30163e-01
       H -8.36684e-02 -7.04770e-02  2.84690e-01
2
# CELL(abcABC):   37.69329    37.69329    37.69329    90.00000    90.00000    90.00000  Step:         370  Bead:       2 positions{angstrom}  cell{angstrom}
       H  2.05311e-01  4.00270e-01 -1.50344e-01
       H -9.80079e-02 -3.62415e-02  2.92173e-01
2
# CELL(abcABC):   37.69329    37.69329    37.69329    90.00000    90.00000    90.00000  Step:         375  Bead:       2 positions{angstrom}  cell{angstrom}
       H  1.69313e-01  3.64996e-01 -1.78227e-01
       H -1.51414e-01 -4.51697e-02  2.98651e-01
2
# CELL(abcABC):   37.69329    37.69329    37.69329    90.00000    90.00000    90.00000  Step:         380  Bead:       2 positions{angstrom}  cell{angstrom}
       H  1.38268e-01  3.64280e-01 -2.05734e-01
       H -2.38113e-01 -5.56088e-02  3.16220e-01
2
# CELL(abcABC):   37.69329    37.69329    37.69329    90.00000    90.00000    90.00000  Step:         385  Bead:       2 positions{angstrom}  cell{angstrom}
       H  7.84904e-02  3.12599e-01 -2.13404e-01
       H -2.91165e-01 -5.32262e-02  3.09197e-01
2
# CELL(abcABC):   37.69329    37.69329    37.69329    90.00000    90.00000    90.00000  Step:         390  Bead:       2 positions{angstrom}  cell{angstrom}
       H  8.42168e-02  2.54458e-01 -2.17688e-01
       H -2.95337e-01 -5.99124e-02  2.68406e-01
2
# CELL(abcABC):   37.69329    37.69329    37.69329    90.00000    90.00000    90.00000  Step:         395  Bead:       2 positions{angstrom}  cell{angstrom}
       H  8.21155e-02  2.47783e-01 -2.56757e-01
       H -2.98650e-01 -8.10379e-02  2.21583e-01
2
# CELL(abcABC):   37.69329    37.69329    37.69329    90.00000    90.00000    90.00000  Step:         400  Bead:       2 positions{angstrom}  cell{angstrom}
       H  8.72821e-02  2.44920e-01 -2.97358e-01
       H -2.95992e-01 -7.77532e-02  1.83197e-01
2
# CELL(abcABC):   37.69329    37.69329    37.69329    90.00000    90.00000    90.00000  Step:         405  Bead:       2 positions{angstrom}  cell{angstrom}
       H  9.49606e-02  2.38178e-01 -3.35173e-01
       H -3.38407e-01 -6.90050e-02  1.62168e-01
2
# CELL(abcABC):   37.69329    37.69329    37.69329    90.00000    90.00000    90.00000  Step:         410  Bead:       2 positions{angstrom}  cell{angstrom}
       H  5.65059e-02  2.77983e-01 -3.74235e-01
       H -3.59360e-01 -5.25063e-02  1.11965e-01
2
# CELL(abcABC):   37.69329    37.69329    37.69329    90.00000    90.00000    90.00000  Step:         415  Bead:       2 positions{angstrom}  cell{angstrom}
       H  1.93704e-02  3.36548e-01 -3.28556e-01
       H -3.83759e-01 -5.53151e-02  6.30037e-02
2
# CELL(abcABC):   37.69329    37.69329    37.69329    90.00000    90.00000    90.00000  Step:         420  Bead:       2 positions{angstrom}  cell{angstrom}
       H -8.08030e-03  3.70246e-01 -2.96638e-01
       H -3.86305e-01 -4.78222e-02  5.46487e-02
2
# CELL(abcABC):   37.69329    37.69329    37.69329    90.00000    90.00000    90.00000  Step:         425  Bead:       2 positions{angstrom}  cell{angstrom}
       H  1.58404e-03  4.08893e-01 -2.53082e-01
       H -4.24805e-01 -8.11621e-02  8.35266e-02
2
# CELL(abcABC):   37.69329    37.69329    37.69329    90.00000    90.00000    90.00000  Step:         430  Bead:       2 positions{angstrom}  cell{angstrom}
       H  1.10152e-02  4.16294e-01 -2.15060e-01
       H -4.28094e-01 -1.11624e-01  8.74189e-02
2
# CELL(abcABC):   37.69329    37.69329    37.69329    90.00000    90.00000    90.00000  Step:         435  Bead:       2 positions{angstrom}  cell{angstrom}
       H -7.20731e-03  3.73545e-01 -2.06842e-01
       H -3.79639e-01 -1.43143e-01  6.35238e-02
2
# CELL(abcABC):   37.69329    37.69329    37.69329    90.00000    90.00000    90.00000  Step:         440  Bead:       2 positions{angstrom}  cell{angstrom}
       H -3.22976e-02  3.63147e-01 -1.99573e-01
       H -3.92162e-01 -1.59098e-01  7.06149e-02
2
# CELL(abcABC):   37.69329    37.69329    37.69329    90.00000    90.00000    90.00000  Step:         445  Bead:       2 positions{angstrom}  cell{angstrom}
       H -5.74230e-02  3.80415e-01 -1.95388e-01
       H -4.12490e-01 -1.90061e-01  6.14713e-02
2
# CELL(abcABC):   37.69329    37.69329    37.69329    90.00000    90.00000    90.00000  Step:         450  Bead:       2 positions{angstrom}  cell{angstrom}
       H -7.44295e-02  3.82469e-01 -2.05649e-01
       H -4.00121e-01 -2.30334e-01  3.72856e-02
2
# CELL(abcABC):   37.69329    37.69329    37.69329    90.00000    90.00000    90.00000  Step:         455  Bead:       2 positions{angstrom}  cell{angstrom}
       H -9.73855e-02  3.78862e-01 -2.14196e-01
       H -3.60820e-01 -2.31018e-01 -1.44593e-02
2
# CELL(abcABC):   37.69329    37.69329    37.69329    90.00000    90.00000    90.00000  Step:         460  Bead:       2 positions{angstrom}  cell{angstrom}
       H -9.35223e-02  3.59542e-01 -1.95264e-01
       H -3.81245e-01 -2.76286e-01 -6.02198e-02
2
# CELL(abcABC):   37.69329    37.69329    37.69329    90.00000    90.00000    90.00000  Step:         465  Bead:       2 positions{angstrom}  cell{angstrom}
       H -1.10426e-01  3.46238e-01 -1.91592e-01
       H -3.19705e-01 -3.08486e-01 -1.07369e-01
2
# CELL(abcABC):   37.69329    37.69329    37.69329    90.00000    90.00000    90.00000  Step:         470  Bead:       2 positions{angstrom}  cell{angstrom}
       H -6.63873e-02  3.16696e-01 -2.03098e-01
       H -2.44699e-01 -3.17359e-01 -1.63705e-01
2
# CELL(abcABC):   37.69329    37.69329    37.69329    90.00000    90.00000    90.00000  Step:         475  Bead:       2 positions{angstrom}  cell{angstrom}
       H  2.70985e-03  3.73722e-01 -2.25173e-01
       H -2.09027e-01 -3.35131e-01 -1.74024e-01
2
# CELL(abcABC):   37.69329    37.69329    37.69329    90.00000    90.00000    90.00000  Step:         480  Bead:       2 positions{angstrom}  cell{angstrom}
       H  1.31670e-02  3.48721e-01 -2.45533e-01
       H -2.07512e-01 -3.14223e-01 -1.75078e-01
2
# CELL(abcABC):   37.69329    37.69329    37.69329    90.00000    90.00000    90.00000  Step:         485  Bead:       2 positions{angstrom}  cell{angstrom}
       H  2.16523e-02  3.39929e-01 -2.36743e-01
       H -2.18104e-01 -3.21546e-01 -1.70259e-01
2
# CELL(abcABC):   37.69329    37.69329    37.69329    90.00000    90.00000    90.00000  Step:         490  Bead:       2 positions{angstrom}  cell{angstrom}
       H  4.08468e-02  3.41534e-01 -2.24814e-01
       H -2.63099e-01 -3.30987e-01 -1.42673e-01
2
# CELL(abcABC):   37.69329    37.69329    37.69329    90.00000    90.00000    90.00000  Step:         495  Bead:       2 positions{angstrom}  cell{angstrom}
       H  5.56459e-02  3.46450e-01 -1.87428e-01
       H -2.87027e-01 -3.27236e-01 -9.67497e-02
2
# CELL(abcABC):   37.69329    37.69329    37.69329    90.00000    90.00000    90.00000  Step:         500  Bead:       2 positions{angstrom}  cell{angstrom}
       H  4.87530e-02  3.24065e-01 -1.47372e-01
       H -2.71094e-01 -2.98040e-01 -3.40987e-02
2
# CELL(abcABC):   37.69329    37.69329    37.69329    90.00000    90.00000    90.00000  Step:         505  Bead:       2 positions{angstrom}  cell{angstrom}
       H  9.74509e-02  2.99721e-01 -1.36497e-01
       H -2.79108e-01 -2.60133e-01 -1.93689e-03
2
# CELL(abcABC):   37.69329    37.69329    37.69329    90.00000    90.00000    90.00000  Step:         510  Bead:       2 positions{angstrom}  cell{angstrom}
       H  1.50766e-01  2.63377e-01 -1.20950e-01
       H -2.96871e-01 -2.51753e-01 -1.27172e-02
2
# CELL(abcABC):   37.69329    37.69329    37.69329    90.00000    90.00000    90.00000  Step:         515  Bead:       2 positions{angstrom}  cell{angstrom}
       H  1.98523e-01  2.93201e-01 -9.38580e-02
       H -2.99845e-01 -2.68358e-01  2.11920e-03
2
# CELL(abcABC):   37.69329    37.69329    37.69329    90.00000    90.00000    90.00000  Step:         520  Bead:       2 positions{angstrom}  cell{angstrom}
       H  2.12818e-01  2.71155e-01 -9.35702e-02
       H -2.80949e-01 -2.81110e-01  5.19816e-02
2
# CELL(abcABC):   37.69329    37.69329    37.69329    90.00000    90.00000    90.00000  Step:         525  Bead:       2 positions{angstrom}  cell{angstrom}
       H  1.81952e-01  1.96977e-01 -1.23365e-01
       H -2.68163e-01 -3.08947e-01  8.58369e-02
2
# CELL(abcABC):   37.69329    37.69329    37.69329    90.00000    90.00000    90.00000  Step:         530  Bead:       2 positions{angstrom}  cell{angstrom}
       H  1.48399e-01  2.09902e-01 -1.64753e-01
       H -2.72638e-01 -2.95709e-01  8.77916e-02
2
# CELL(abcABC):   37.69329    37.69329    37.69329    90.00000    90.00000    90.00000  Step:         535  Bead:       2 positions{angstrom}  cell{angstrom}
       H  1.54829e-01  2.77182e-01 -1.70883e-01
       H -2.80065e-01 -2.71083e-01  8.49828e-02
2
# CELL(abcABC):   37.69329    37.69329    37.69329    90.00000    90.00000    90.00000  Step:         540  Bead:       2 positions{angstrom}  cell{angstrom}
       H  2.08097e-01  2.88912e-01 -1.64348e-01
       H -3.04547e-01 -2.50311e-01  1.17777e-01
2
# CELL(abcABC):   37.69329    37.69329    37.69329    90.00000    90.00000    90.00000  Step:         545  Bead:       2 positions{angstrom}  cell{angstrom}
       H  2.25085e-01  2.59845e-01 -1.44193e-01
       H -2.85701e-01 -1.84759e-01  1.00662e-01
2
# CELL(abcABC):   37.69329    37.69329    37.69329    90.00000    90.00000    90.00000  Step:         550  Bead:       2 positions{angstrom}  cell{angstrom}
       H  2.39829e-01  2.48553e-01 -1.07043e-01
       H -2.94604e-01 -1.33497e-01  2.84826e-02
2
# CELL(abcABC):   37.69329    37.69329    37.69329    90.00000    90.00000    90.00000  Step:         555  Bead:       2 positions{angstrom}  cell{angstrom}
       H  2.43550e-01  2.48026e-01 -8.94883e-02
       H -3.14982e-01 -1.03494e-01 -2.27497e-02
2
# CELL(abcABC):   37.69329    37.69329    37.69329    90.00000    90.00000    90.00000  Step:         560  Bead:       2 positions{angstrom}  cell{angstrom}
       H  2.42942e-01  2.51686e-01 -1.33959e-01
       H -3.26834e-01 -6.43241e-02 -4.92159e-03
2
# CELL(abcABC):   37.69329    37.69329    37.69329    90.00000    90.00000    90.00000  Step:         565  Bead:       2 positions{angstrom}  cell{angstrom}
       H  2.75309e-01  2.56841e-01 -1.87321e-01
       H -3.41229e-01 -2.59833e-02  1.00715e-02
2
# CELL(abcABC):   37.69329    37.69329    37.69329    90.00000    90.00000    90.00000  Step:         570  Bead:       2 positions{angstrom}  cell{angstrom}
       H  3.16961e-01  2.34752e-01 -2.03804e-01
       H -3.61206e-01  1.45096e-02  2.98000e-02
2
# CELL(abcABC):   37.69329    37.69329    37.69329    90.00000    90.00000    90.00000  Step:         575  Bead:       2 positions{angstrom}  cell{angstrom}
       H  3.09477e-01  1.90869e-01 -1.89607e-01
       H -3.52542e-01  4.20144e-02  3.68987e-02
2
# CELL(abcABC):   37.69329    37.69329    37.69329    90.00000    90.00000    90.00000  Step:         580  Bead:       2 positions{angstrom}  cell{angstrom}
       H  3.05051e-01  1.99459e-01 -1.76417e-01
       H -3.51811e-01  4.76196e-02  1.64336e-03
2
# CELL(abcABC):   37.69329    37.69329    37.69329    90.00000    90.00000    90.00000  Step:         585  Bead:       2 positions{angstrom}  cell{angstrom}