2
# CELL(abcABC):   37.69329    37.69329    37.69329    90.00000    90.00000    90.00000  Step:           0  Bead:       3 forces{piconewton}  cell{angstrom}
       H  2.13084e+04 -6.29184e+03 -2.09728e+02
       H -2.13084e+04  6.29184e+03  2.09728e+02
2
# CELL(abcABC):   37.69329    37.69329    37.69329    90.00000    90.00000    90.00000  Step:           5  Bead:       3 forces{piconewton}  cell{angstrom}
       H  1.54077e+03 -4.10033e+02 -1.13522e+02
       H -1.54077e+03  4.10033e+02  1.13522e+02
2
# CELL(abcABC):   37.69329    37.69329    37.69329    90.00000    90.00000    90.00000  Step:          10  Bead:       3 forces{piconewton}  cell{angstrom}
       H -1.07288e+04  2.00698e+03  9.44384e+02
       H  1.07288e+04 -2.00698e+03 -9.44384e+02
2
# CELL(abcABC):   37.69329    37.69329    37.69329    90.00000    90.00000    90.00000  Step:          15  Bead:       3 forces{piconewton}  cell{angstrom}
       H -1.20167e+04  1.80982e+03  1.24634e+03
       H  1.20167e+04 -1.80982e+03 -1.24634e+03
2
# CELL(abcABC):   37.69329    37.69329    37.69329    90.00000    90.00000    90.00000  Step:          20  Bead:       3 forces{piconewton}  cell{angstrom}
       H -7.30145e+03  1.39262e+03  5.99706e+02
       H  7.30145e+03 -1.39262e+03 -5.99706e+02
2
# CELL(abcABC):   37.69329    37.69329    37.69329    90.00000    90.00000    90.00000  Step:          25  Bead:       3 forces{piconewton}  cell{angstrom}
       H  1.15367e+04 -2.56010e+03 -2.45378e+02
       H -1.15367e+04  2.56010e+03  2.45378e+02
2
# CELL(abcABC):   37.69329    37.69329    37.69329    90.00000    90.00000    90.00000  Step:          30  Bead:       3 forces{piconewton}  cell{angstrom}
       H  5.90962e+03 -1.01434e+03  5.27724e+02
       H -5.90962e+03  1.01434e+03 -5.27724e+02
2
# CELL(abcABC):   37.69329    37.69329    37.69329    90.00000    90.00000    90.00000  Step:          35  Bead:       3 forces{piconewton}  cell{angstrom}
       H -6.53932e+03  9.89865e+02 -8.91367e+02
       H  6.53932e+03 -9.89865e+02  8.91367e+02
2
# CELL(abcABC):   37.69329    37.69329    37.69329    90.00000    90.00000    90.00000  Step:          40  Bead:       3 forces{piconewton}  cell{angstrom}
       H -7.90854e+03  1.15567e+03 -8.53407e+02
       H  7.90854e+03 -1.15567e+03  8.53407e+02
2
# CELL(abcABC):   37.69329    37.69329    37.69329    90.00000    90.00000    90.00000  Step:          45  Bead:       3 forces{piconewton}  cell{angstrom}
       H -4.36549e+03  7.07581e+02 -2.59995e+02
       H  4.36549e+03 -7.07581e+02  2.59995e+02
2
# CELL(abcABC):   37.69329    37.69329    37.69329    90.00000    90.00000    90.00000  Step:          50  Bead:       3 forces{piconewton}  cell{angstrom}
       H  7.65997e+03 -1.29992e+03  4.16502e+02
       H -7.65997e+03  1.29992e+03 -4.16502e+02
2
# CELL(abcABC):   37.69329    37.69329    37.69329    90.00000    90.00000    90.00000  Step:          55  Bead:       3 forces{piconewton}  cell{angstrom}
       H  8.61340e+03 -1.18182e+03  8.33963e+02
       H -8.61340e+03  1.18182e+03 -8.33963e+02
2
# CELL(abcABC):   37.69329    37.69329    37.69329    90.00000    90.00000    90.00000  Step:          60  Bead:       3 forces{piconewton}  cell{angstrom}
       H -2.64119e+03  4.01351e+02 -1.55932e+02
       H  2.64119e+03 -4.01351e+02  1.55932e+02
2
# CELL(abcABC):   37.69329    37.69329    37.69329    90.00000    90.00000    90.00000  Step:          65  Bead:       3 forces{piconewton}  cell{angstrom}
       H -6.40814e+03  1.49799e+03 -2.00610e+02
       H  6.40814e+03 -1.49799e+03  2.00610e+02
2
# CELL(abcABC):   37.69329    37.69329    37.69329    90.00000    90.00000    90.00000  Step:          70  Bead:       3 forces{piconewton}  cell{angstrom}
       H  2.39238e+03 -5.29538e+02  2.27477e+02
       H -2.39238e+03  5.29538e+02 -2.27477e+02
2
# CELL(abcABC):   37.69329    37.69329    37.69329    90.00000    90.00000    90.00000  Step:          75  Bead:       3 forces{piconewton}  cell{angstrom}
       H  1.03974e+04 -2.36307e+03  2.24150e+03
       H -1.03974e+04  2.36307e+03 -2.24150e+03
2
# CELL(abcABC):   37.69329    37.69329    37.69329    90.00000    90.00000    90.00000  Step:          80  Bead:       3 forces{piconewton}  cell{angstrom}
       H  2.02423e+03 -4.60129e+02  5.44360e+02
       H -2.02423e+03  4.60129e+02 -5.44360e+02
2
# CELL(abcABC):   37.69329    37.69329    37.69329    90.00000    90.00000    90.00000  Step:          85  Bead:       3 forces{piconewton}  cell{angstrom}
       H -6.46655e+03  1.60253e+03 -1.25283e+03
       H  6.46655e+03 -1.60253e+03  1.25283e+03
2
# CELL(abcABC):   37.69329    37.69329    37.69329    90.00000    90.00000    90.00000  Step:          90  Bead:       3 forces{piconewton}  cell{angstrom}
       H -8.23977e+03  1.99558e+03 -9.69682e+02
       H  8.23977e+03 -1.99558e+03  9.69682e+02
2
# CELL(abcABC):   37.69329    37.69329    37.69329    90.00000    90.00000    90.00000  Step:          95  Bead:       3 forces{piconewton}  cell{angstrom}
       H -4.78913e+03  9.33931e+02 -6.54014e+02
       H  4.78913e+03 -9.33931e+02  6.54014e+02
2
# CELL(abcABC):   37.69329    37.69329    37.69329    90.00000    90.00000    90.00000  Step:         100  Bead:       3 forces{piconewton}  cell{angstrom}
       H  5.89142e+03 -2.49996e+02  7.01652e+02
       H -5.89142e+03  2.49996e+02 -7.01652e+02
2
# CELL(abcABC):   37.69329    37.69329    37.69329    90.00000    90.00000    90.00000  Step:         105  Bead:       3 forces{piconewton}  cell{angstrom}
       H  7.12837e+03  6.97623e+02  9.11162e+02
       H -7.12837e+03 -6.97623e+02 -9.11162e+02
2
# CELL(abcABC):   37.69329    37.69329    37.69329    90.00000    90.00000    90.00000  Step:         110  Bead:       3 forces{piconewton}  cell{angstrom}
       H -4.59449e+03 -8.59294e+02 -3.40869e+02
       H  4.59449e+03  8.59294e+02  3.40869e+02
2
# CELL(abcABC):   37.69329    37.69329    37.69329    90.00000    90.00000    90.00000  Step:         115  Bead:       3 forces{piconewton}  cell{angstrom}
       H -8.72366e+03 -2.44796e+03  1.72432e+02
       H  8.72366e+03  2.44796e+03 -1.72432e+02
2
# CELL(abcABC):   37.69329    37.69329    37.69329    90.00000    90.00000    90.00000  Step:         120  Bead:       3 forces{piconewton}  cell{angstrom}
       H -6.44783e+03 -1.35834e+03  4.98661e+02
       H  6.44783e+03  1.35834e+03 -4.98661e+02
2
# CELL(abcABC):   37.69329    37.69329    37.69329    90.00000    90.00000    90.00000  Step:         125  Bead:       3 forces{piconewton}  cell{angstrom}
       H  5.22672e+03  5.34862e+02 -6.08851e+02
       H -5.22672e+03 -5.34862e+02  6.08851e+02
2
# CELL(abcABC):   37.69329    37.69329    37.69329    90.00000    90.00000    90.00000  Step:         130  Bead:       3 forces{piconewton}  cell{angstrom}
       H  1.77325e+04  5.41502e+02 -1.27520e+03
       H -1.77325e+04 -5.41502e+02  1.27520e+03
2
# CELL(abcABC):   37.69329    37.69329    37.69329    90.00000    90.00000    90.00000  Step:         135  Bead:       3 forces{piconewton}  cell{angstrom}
       H -2.20657e+03 -1.64949e+02  3.89344e+02
       H  2.20657e+03  1.64949e+02 -3.89344e+02
2
# CELL(abcABC):   37.69329    37.69329    37.69329    90.00000    90.00000    90.00000  Step:         140  Bead:       3 forces{piconewton}  cell{angstrom}
       H -8.90863e+03 -4.58922e+02  1.93259e+03
       H  8.90863e+03  4.58922e+02 -1.93259e+03
2
# CELL(abcABC):   37.69329    37.69329    37.69329    90.00000    90.00000    90.00000  Step:         145  Bead:       3 forces{piconewton}  cell{angstrom}
       H -5.54930e+03  3.79620e+02  1.51611e+03
       H  5.54930e+03 -3.79620e+02 -1.51611e+03
2
# CELL(abcABC):   37.69329    37.69329    37.69329    90.00000    90.00000    90.00000  Step:         150  Bead:       3 forces{piconewton}  cell{angstrom}
       H  8.60636e+03 -1.08149e+03 -2.70635e+03
       H -8.60636e+03  1.08149e+03  2.70635e+03
2
# CELL(abcABC):   37.69329    37.69329    37.69329    90.00000    90.00000    90.00000  Step:         155  Bead:       3 forces{piconewton}  cell{angstrom}
       H  6.50930e+03 -7.47375e+02 -2.45559e+03
       H -6.50930e+03  7.47375e+02  2.45559e+03
2
# CELL(abcABC):   37.69329    37.69329    37.69329    90.00000    90.00000    90.00000  Step:         160  Bead:       3 forces{piconewton}  cell{angstrom}
       H -5.64687e+03  2.04449e+02  2.62308e+03
       H  5.64687e+03 -2.04449e+02 -2.62308e+03
2
# CELL(abcABC):   37.69329    37.69329    37.69329    90.00000    90.00000    90.00000  Step:         165  Bead:       3 forces{piconewton}  cell{angstrom}
       H -6.38439e+03  4.88902e+01  4.01998e+03
       H  6.38439e+03 -4.88902e+01 -4.01998e+03
2
# CELL(abcABC):   37.69329    37.69329    37.69329    90.00000    90.00000    90.00000  Step:         170  Bead:       3 forces{piconewton}  cell{angstrom}
       H -2.92060e+03 -5.04960e+02  2.15405e+03
       H  2.92060e+03  5.04960e+02 -2.15405e+03
2
# CELL(abcABC):   37.69329    37.69329    37.69329    90.00000    90.00000    90.00000  Step:         175  Bead:       3 forces{piconewton}  cell{angstrom}
       H  8.20540e+03  4.66287e+03 -8.40265e+03
       H -8.20540e+03 -4.66287e+03  8.40265e+03
2
# CELL(abcABC):   37.69329    37.69329    37.69329    90.00000    90.00000    90.00000  Step:         180  Bead:       3 forces{piconewton}  cell{angstrom}
       H  1.54320e+03  1.70393e+03 -2.21254e+03
       H -1.54320e+03 -1.70393e+03  2.21254e+03
2
# CELL(abcABC):   37.69329    37.69329    37.69329    90.00000    90.00000    90.00000  Step:         185  Bead:       3 forces{piconewton}  cell{angstrom}
       H -2.44341e+03 -3.24759e+03  4.89077e+03
       H  2.44341e+03  3.24759e+03 -4.89077e+03
2
# CELL(abcABC):   37.69329    37.69329    37.69329    90.00000    90.00000    90.00000  Step:         190  Bead:       3 forces{piconewton}  cell{angstrom}
       H -3.84717e+03 -4.56664e+03  7.94019e+03
       H  3.84717e+03  4.56664e+03 -7.94019e+03
2
# CELL(abcABC):   37.69329    37.69329    37.69329    90.00000    90.00000    90.00000  Step:         195  Bead:       3 forces{piconewton}  cell{angstrom}
       H -2.96484e+03 -3.37609e+03  6.57552e+03
       H  2.96484e+03  3.37609e+03 -6.57552e+03
2
# CELL(abcABC):   37.69329    37.69329    37.69329    90.00000    90.00000    90.00000  Step:         200  Bead:       3 forces{piconewton}  cell{angstrom}
       H  1.64952e+03  1.99938e+03 -5.40523e+03
       H -1.64952e+03 -1.99938e+03  5.40523e+03
2
# CELL(abcABC):   37.69329    37.69329    37.69329    90.00000    90.00000    90.00000  Step:         205  Bead:       3 forces{piconewton}  cell{angstrom}
       H  1.00216e+03  1.09291e+03 -4.85866e+03
       H -1.00216e+03 -1.09291e+03  4.85866e+03
2
# CELL(abcABC):   37.69329    37.69329    37.69329    90.00000    90.00000    90.00000  Step:         210  Bead:       3 forces{piconewton}  cell{angstrom}
       H -6.17179e+02 -9.72911e+02  4.49584e+03
       H  6.17179e+02  9.72911e+02 -4.49584e+03
2
# CELL(abcABC):   37.69329    37.69329    37.69329    90.00000    90.00000    90.00000  Step:         215  Bead:       3 forces{piconewton}  cell{angstrom}
       H -6.70403e+02 -1.49151e+03  5.68246e+03
       H  6.70403e+02  1.49151e+03 -5.68246e+03
2
# CELL(abcABC):   37.69329    37.69329    37.69329    90.00000    90.00000    90.00000  Step:         220  Bead:       3 forces{piconewton}  cell{angstrom}
       H -4.88287e+02 -7.68631e+02  3.58664e+03
       H  4.88287e+02  7.68631e+02 -3.58664e+03
2
# CELL(abcABC):   37.69329    37.69329    37.69329    90.00000    90.00000    90.00000  Step:         225  Bead:       3 forces{piconewton}  cell{angstrom}
       H  6.14036e+02  7.67597e+02 -5.94089e+03
       H -6.14036e+02 -7.67597e+02  5.94089e+03
2
# CELL(abcABC):   37.69329    37.69329    37.69329    90.00000    90.00000    90.00000  Step:         230  Bead:       3 forces{piconewton}  cell{angstrom}
       H  6.00935e+02  4.80840e+02 -5.58085e+03
       H -6.00935e+02 -4.80840e+02  5.58085e+03
2
# CELL(abcABC):   37.69329    37.69329    37.69329    90.00000    90.00000    90.00000  Step:         235  Bead:       3 forces{piconewton}  cell{angstrom}
       H -1.46443e+02 -2.34127e+02  1.76423e+03
       H  1.46443e+02  2.34127e+02 -1.76423e+03
2
# CELL(abcABC):   37.69329    37.69329    37.69329    90.00000    90.00000    90.00000  Step:         240  Bead:       3 forces{piconewton}  cell{angstrom}
       H -9.42972e+01 -7.96128e+02  6.46921e+03
       H  9.42972e+01  7.96128e+02 -6.46921e+03
2
# CELL(abcABC):   37.69329    37.69329    37.69329    90.00000    90.00000    90.00000  Step:         245  Bead:       3 forces{piconewton}  cell{angstrom}
       H  2.20295e+02 -1.27996e+03  5.55904e+03
       H -2.20295e+02  1.27996e+03 -5.55904e+03
2
# CELL(abcABC):   37.69329    37.69329    37.69329    90.00000    90.00000    90.00000  Step:         250  Bead:       3 forces{piconewton}  cell{angstrom}
       H -4.79551e+02  2.77085e+03 -7.17959e+03
       H  4.79551e+02 -2.77085e+03  7.17959e+03
2
# CELL(abcABC):   37.69329    37.69329    37.69329    90.00000    90.00000    90.00000  Step:         255  Bead:       3 forces{piconewton}  cell{angstrom}
       H -8.37078e+02  2.39315e+03 -5.15849e+03
       H  8.37078e+02 -2.39315e+03  5.15849e+03
2
# CELL(abcABC):   37.69329    37.69329    37.69329    90.00000    90.00000    90.00000  Step:         260  Bead:       3 forces{piconewton}  cell{angstrom}
       H  1.10490e+03 -2.78867e+03  5.91907e+03
       H -1.10490e+03  2.78867e+03 -5.91907e+03
2
# CELL(abcABC):   37.69329    37.69329    37.69329    90.00000    90.00000    90.00000  Step:         265  Bead:       3 forces{piconewton}  cell{angstrom}
       H  9.61923e+02 -2.95291e+03  6.27168e+03
       H -9.61923e+02  2.95291e+03 -6.27168e+03
2
# CELL(abcABC):   37.69329    37.69329    37.69329    90.00000    90.00000    90.00000  Step:         270  Bead:       3 forces{piconewton}  cell{angstrom}
       H  1.59138e+02 -4.69147e+02  1.20386e+03
       H -1.59138e+02  4.69147e+02 -1.20386e+03
2
# CELL(abcABC):   37.69329    37.69329    37.69329    90.00000    90.00000    90.00000  Step:         275  Bead:       3 forces{piconewton}  cell{angstrom}
       H -5.54849e+02  2.06572e+03 -5.66952e+03
       H  5.54849e+02 -2.06572e+03  5.66952e+03
2
# CELL(abcABC):   37.69329    37.69329    37.69329    90.00000    90.00000    90.00000  Step:         280  Bead:       3 forces{piconewton}  cell{angstrom}
       H -1.52844e+02  5.97744e+02 -1.79655e+03
       H  1.52844e+02 -5.97744e+02  1.79655e+03
2
# CELL(abcABC):   37.69329    37.69329    37.69329    90.00000    90.00000    90.00000  Step:         285  Bead:       3 forces{piconewton}  cell{angstrom}
       H  9.96927e+01 -8.23770e+02  2.59727e+03
       H -9.96927e+01  8.23770e+02 -2.59727e+03
2
# CELL(abcABC):   37.69329    37.69329    37.69329    90.00000    90.00000    90.00000  Step:         290  Bead:       3 forces{piconewton}  cell{angstrom}
       H -2.95724e+02 -1.48899e+03  4.50360e+03
       H  2.95724e+02  1.48899e+03 -4.50360e+03
2
# CELL(abcABC):   37.69329    37.69329    37.69329    90.00000    90.00000    90.00000  Step:         295  Bead:       3 forces{piconewton}  cell{angstrom}
       H  7.32436e+01  1.74966e+02 -4.65425e+02
       H -7.32436e+01 -1.74966e+02  4.65425e+02
2
# CELL(abcABC):   37.69329    37.69329    37.69329    90.00000    90.00000    90.00000  Step:         300  Bead:       3 forces{piconewton}  cell{angstrom}
       H  7.19543e+02  1.19256e+03 -2.52901e+03
       H -7.19543e+02 -1.19256e+03  2.52901e+03
2
# CELL(abcABC):   37.69329    37.69329    37.69329    90.00000    90.00000    90.00000  Step:         305  Bead:       3 forces{piconewton}  cell{angstrom}
       H  7.29627e+02  1.10634e+03 -2.41113e+03
       H -7.29627e+02 -1.10634e+03  2.41113e+03
2
# CELL(abcABC):   37.69329    37.69329    37.69329    90.00000    90.00000    90.00000  Step:         310  Bead:       3 forces{piconewton}  cell{angstrom}
       H  4.74104e+01  9.48028e+01 -2.01578e+02
       H -4.74104e+01 -9.48028e+01  2.01578e+02
2
# CELL(abcABC):   37.69329    37.69329    37.69329    90.00000    90.00000    90.00000  Step:         315  Bead:       3 forces{piconewton}  cell{angstrom}
       H -5.64044e+02 -1.27671e+03  2.75391e+03
       H  5.64044e+02  1.27671e+03 -2.75391e+03
2
# CELL(abcABC):   37.69329    37.69329    37.69329    90.00000    90.00000    90.00000  Step:         320  Bead:       3 forces{piconewton}  cell{angstrom}
       H -2.19643e+02 -6.38360e+02  1.89079e+03
       H  2.19643e+02  6.38360e+02 -1.89079e+03
2
# CELL(abcABC):   37.69329    37.69329    37.69329    90.00000    90.00000    90.00000  Step:         325  Bead:       3 forces{piconewton}  cell{angstrom}
       H  8.93262e-01 -4.94482e+01  2.17349e+02
       H -8.93262e-01  4.94482e+01 -2.17349e+02
2
# CELL(abcABC):   37.69329    37.69329    37.69329    90.00000    90.00000    90.00000  Step:         330  Bead:       3 forces{piconewton}  cell{angstrom}
       H  1.93366e+02 -2.19146e+02  1.31058e+03
       H -1.93366e+02  2.19146e+02 -1.31058e+03
2
# CELL(abcABC):   37.69329    37.69329    37.69329    90.00000    90.00000    90.00000  Step:         335  Bead:       3 forces{piconewton}  cell{angstrom}
       H -2.90512e+02  1.67376e+02 -9.04760e+02
       H  2.90512e+02 -1.67376e+02  9.04760e+02
2
# CELL(abcABC):   37.69329    37.69329    37.69329    90.00000    90.00000    90.00000  Step:         340  Bead:       3 forces{piconewton}  cell{angstrom}
       H  1.41428e+02 -9.16932e+01  5.33455e+02
       H -1.41428e+02  9.16932e+01 -5.33455e+02
2
# CELL(abcABC):   37.69329    37.69329    37.69329    90.00000    90.00000    90.00000  Step:         345  Bead:       3 forces{piconewton}  cell{angstrom}
       H  7.34540e+02 -6.69478e+02  2.96853e+03
       H -7.34540e+02  6.69478e+02 -2.96853e+03
2
# CELL(abcABC):   37.69329    37.69329    37.69329    90.00000    90.00000    90.00000  Step:         350  Bead:       3 forces{piconewton}  cell{angstrom}
       H -1.47035e+02  3.17403e+02 -8.54624e+02
       H  1.47035e+02 -3.17403e+02  8.54624e+02
2
# CELL(abcABC):   37.69329    37.69329    37.69329    90.00000    90.00000    90.00000  Step:         355  Bead:       3 forces{piconewton}  cell{angstrom}
       H  1.02557e+02  2.62729e+03 -4.98353e+03
       H -1.02557e+02 -2.62729e+03  4.98353e+03
2
# CELL(abcABC):   37.69329    37.69329    37.69329    90.00000    90.00000    90.00000  Step:         360  Bead:       3 forces{piconewton}  cell{angstrom}
       H -4.20413e+01 -2.81800e+02  4.87704e+02
       H  4.20413e+01  2.81800e+02 -4.87704e+02
2
# CELL(abcABC):   37.69329    37.69329    37.69329    90.00000    90.00000    90.00000  Step:         365  Bead:       3 forces{piconewton}  cell{angstrom}
       H -5.87616e+02 -2.78500e+03  4.45810e+03
       H  5.87616e+02  2.78500e+03 -4.45810e+03
2
# CELL(abcABC):   37.69329    37.69329    37.69329    90.00000    90.00000    90.00000  Step:         370  Bead:       3 forces{piconewton}  cell{angstrom}
       H -8.64770e+02 -2.31947e+03  3.80190e+03
       H  8.64770e+02  2.31947e+03 -3.80190e+03
2
# CELL(abcABC):   37.69329    37.69329    37.69329    90.00000    90.00000    90.00000  Step:         375  Bead:       3 forces{piconewton}  cell{angstrom}
       H -6.22221e+02 -1.17995e+03  1.78713e+03
       H  6.22221e+02  1.17995e+03 -1.78713e+03
2
# CELL(abcABC):   37.69329    37.69329    37.69329    90.00000    90.00000    90.00000  Step:         380  Bead:       3 forces{piconewton}  cell{angstrom}
       H  4.13310e+02  7.66199e+02 -1.11086e+03
       H -4.13310e+02 -7.66199e+02  1.11086e+03
2
# CELL(abcABC):   37.69329    37.69329    37.69329    90.00000    90.00000    90.00000  Step:         385  Bead:       3 forces{piconewton}  cell{angstrom}
       H  8.91305e+02  1.32992e+03 -1.87161e+03
       H -8.91305e+02 -1.32992e+03  1.87161e+03
2
# CELL(abcABC):   37.69329    37.69329    37.69329    90.00000    90.00000    90.00000  Step:         390  Bead:       3 forces{piconewton}  cell{angstrom}
       H -1.69296e+03 -2.06721e+03  3.11105e+03
       H  1.69296e+03  2.06721e+03 -3.11105e+03
2
# CELL(abcABC):   37.69329    37.69329    37.69329    90.00000    90.00000    90.00000  Step:         395  Bead:       3 forces{piconewton}  cell{angstrom}
       H -2.43619e+03 -2.35660e+03  3.78434e+03
       H  2.43619e+03  2.35660e+03 -3.78434e+03
2
# CELL(abcABC):   37.69329    37.69329    37.69329    90.00000    90.00000    90.00000  Step:         400  Bead:       3 forces{piconewton}  cell{angstrom}
       H  4.68912e+02  3.98661e+02 -6.08511e+02
       H -4.68912e+02 -3.98661e+02  6.08511e+02
2
# CELL(abcABC):   37.69329    37.69329    37.69329    90.00000    90.00000    90.00000  Step:         405  Bead:       3 forces{piconewton}  cell{angstrom}
       H  2.35439e+03  2.35737e+03 -2.98381e+03
       H -2.35439e+03 -2.35737e+03  2.98381e+03
2
# CELL(abcABC):   37.69329    37.69329    37.69329    90.00000    90.00000    90.00000  Step:         410  Bead:       3 forces{piconewton}  cell{angstrom}
       H  1.69425e+02  1.55782e+02 -1.73922e+02
       H -1.69425e+02 -1.55782e+02  1.73922e+02
2
# CELL(abcABC):   37.69329    37.69329    37.69329    90.00000    90.00000    90.00000  Step:         415  Bead:       3 forces{piconewton}  cell{angstrom}
       H -2.06665e+03 -1.41343e+03  1.59930e+03
       H  2.06665e+03  1.41343e+03 -1.59930e+03
2
# CELL(abcABC):   37.69329    37.69329    37.69329    90.00000    90.00000    90.00000  Step:         420  Bead:       3 forces{piconewton}  cell{angstrom}
       H -1.46495e+03 -9.72945e+02  1.01526e+03
       H  1.46495e+03  9.72945e+02 -1.01526e+03
2
# CELL(abcABC):   37.69329    37.69329    37.69329    90.00000    90.00000    90.00000  Step:         425  Bead:       3 forces{piconewton}  cell{angstrom}
       H  2.13386e+03  1.53733e+03 -1.44903e+03
       H -2.13386e+03 -1.53733e+03  1.44903e+03
2
# CELL(abcABC):   37.69329    37.69329    37.69329    90.00000    90.00000    90.00000  Step:         430  Bead:       3 forces{piconewton}  cell{angstrom}
       H  1.28369e+03  8.33917e+02 -9.11509e+02
       H -1.28369e+03 -8.33917e+02  9.11509e+02
2
# CELL(abcABC):   37.69329    37.69329    37.69329    90.00000    90.00000    90.00000  Step:         435  Bead:       3 forces{piconewton}  cell{angstrom}
       H -2.10415e+03 -1.42589e+03  1.67207e+03
       H  2.10415e+03  1.42589e+03 -1.67207e+03
2
# CELL(abcABC):   37.69329    37.69329    37.69329    90.00000    90.00000    90.00000  Step:         440  Bead:       3 forces{piconewton}  cell{angstrom}
       H -1.99263e+03 -1.57216e+03  1.60561e+03
       H  1.99263e+03  1.57216e+03 -1.60561e+03
2
# CELL(abcABC):   37.69329    37.69329    37.69329    90.00000    90.00000    90.00000  Step:         445  Bead:       3 forces{piconewton}  cell{angstrom}
       H  6.23746e+02  6.18005e+02 -4.36136e+02
       H -6.23746e+02 -6.18005e+02  4.36136e+02
2
# CELL(abcABC):   37.69329    37.69329    37.69329    90.00000    90.00000    90.00000  Step:         450  Bead:       3 forces{piconewton}  cell{angstrom}
       H  1.26828e+03  1.41641e+03 -5.49514e+02
       H -1.26828e+03 -1.41641e+03  5.49514e+02
2
# CELL(abcABC):   37.69329    37.69329    37.69329    90.00000    90.00000    90.00000  Step:         455  Bead:       3 forces{piconewton}  cell{angstrom}
       H -9.16845e+02 -9.14938e+02  2.39047e+02
       H  9.16845e+02  9.14938e+02 -2.39047e+02
2
# CELL(abcABC):   37.69329    37.69329    37.69329    90.00000    90.00000    90.00000  Step:         460  Bead:       3 forces{piconewton}  cell{angstrom}
       H -2.16974e+03 -1.86637e+03  6.17455e+02
       H  2.16974e+03  1.86637e+03 -6.17455e+02
2
# CELL(abcABC):   37.69329    37.69329    37.69329    90.00000    90.00000    90.00000  Step:         465  Bead:       3 forces{piconewton}  cell{angstrom}
       H -4.32418e+03 -2.79284e+03  1.34733e+03
       H  4.32418e+03  2.79284e+03 -1.34733e+03
2
# CELL(abcABC):   37.69329    37.69329    37.69329    90.00000    90.00000    90.00000  Step:         470  Bead:       3 forces{piconewton}  cell{angstrom}
       H -4.85758e+03 -2.40428e+03  1.63486e+03
       H  4.85758e+03  2.40428e+03 -1.63486e+03
2
# CELL(abcABC):   37.69329    37.69329    37.69329    90.00000    90.00000    90.00000  Step:         475  Bead:       3 forces{piconewton}  cell{angstrom}
       H  7.83874e+02  2.65514e+02 -2.10921e+02
       H -7.83874e+02 -2.65514e+02  2.10921e+02
2
# CELL(abcABC):   37.69329    37.69329    37.69329    90.00000    90.00000    90.00000  Step:         480  Bead:       3 forces{piconewton}  cell{angstrom}
       H  1.03474e+04  2.89828e+03 -1.92070e+03
       H -1.03474e+04 -2.89828e+03  1.92070e+03
2
# CELL(abcABC):   37.69329    37.69329    37.69329    90.00000    90.00000    90.00000  Step:         485  Bead:       3 forces{piconewton}  cell{angstrom}
       H -2.75191e+03 -7.42902e+02  4.97676e+02
       H  2.75191e+03  7.42902e+02 -4.97676e+02
2
# CELL(abcABC):   37.69329    37.69329    37.69329    90.00000    90.00000    90.00000  Step:         490  Bead:       3 forces{piconewton}  cell{angstrom}
       H -5.73875e+03 -1.93472e+03  8.62006e+02
       H  5.73875e+03  1.93472e+03 -8.62006e+02
2
# CELL(abcABC):   37.69329    37.69329    37.69329    90.00000    90.00000    90.00000  Step:         495  Bead:       3 forces{piconewton}  cell{angstrom}
       H -2.45467e+03 -9.74298e+02  4.23954e+02
       H  2.45467e+03  9.74298e+02 -4.23954e+02
2
# CELL(abcABC):   37.69329    37.69329    37.69329    90.00000    90.00000    90.00000  Step:         500  Bead:       3 forces{piconewton}  cell{angstrom}
       H  1.79843e+03  8.54571e+02 -3.37133e+02
       H -1.79843e+03 -8.54571e+02  3.37133e+02
2
# CELL(abcABC):   37.69329    37.69329    37.69329    90.00000    90.00000    90.00000  Step:         505  Bead:       3 forces{piconewton}  cell{angstrom}
       H  7.80646e+03  5.27115e+03 -1.42156e+03
       H -7.80646e+03 -5.27115e+03  1.42156e+03
2
# CELL(abcABC):   37.69329    37.69329    37.69329    90.00000    90.00000    90.00000  Step:         510  Bead:       3 forces{piconewton}  cell{angstrom}
       H -2.02284e+03 -1.84853e+03  2.94445e+02
       H  2.02284e+03  1.84853e+03 -2.94445e+02
2
# CELL(abcABC):   37.69329    37.69329    37.69329    90.00000    90.00000    90.00000  Step:         515  Bead:       3 forces{piconewton}  cell{angstrom}
       H -4.72602e+03 -4.91999e+03  4.14362e+01
       H  4.72602e+03  4.91999e+03 -4.14362e+01
2
# CELL(abcABC):   37.69329    37.69329    37.69329    90.00000    90.00000    90.00000  Step:         520  Bead:       3 forces{piconewton}  cell{angstrom}
       H -2.54293e+03 -2.83871e+03  4.03901e+01
       H  2.54293e+03  2.83871e+03 -4.03901e+01
2
# CELL(abcABC):   37.69329    37.69329    37.69329    90.00000    90.00000    90.00000  Step:         525  Bead:       3 forces{piconewton}  cell{angstrom}
       H  4.47605e+03  5.43949e+03 -4.66482e+02
       H -4.47605e+03 -5.43949e+03  4.66482e+02
2
# CELL(abcABC):   37.69329    37.69329    37.69329    90.00000    90.00000    90.00000  Step:         530  Bead:       3 forces{piconewton}  cell{angstrom}
       H  1.07578e+03  1.16192e+03 -2.39155e+02
       H -1.07578e+03 -1.16192e+03  2.39155e+02
2
# CELL(abcABC):   37.69329    37.69329    37.69329    90.00000    90.00000    90.00000  Step:         535  Bead:       3 forces{piconewton}  cell{angstrom}
       H -3.10122e+03 -2.71979e+03  7.44516e+02
       H  3.10122e+03  2.71979e+03 -7.44516e+02
2
# CELL(abcABC):   37.69329    37.69329    37.69329    90.00000    90.00000    90.00000  Step:         540  Bead:       3 forces{piconewton}  cell{angstrom}
       H -1.12795e+03 -8.96116e+02  1.23978e+02
       H  1.12795e+03  8.96116e+02 -1.23978e+02
2
# CELL(abcABC):   37.69329    37.69329    37.69329    90.00000    90.00000    90.00000  Step:         545  Bead:       3 forces{piconewton}  cell{angstrom}
       H -8.84558e+02 -6.53950e+02  2.06909e+01
       H  8.84558e+02  6.53950e+02 -2.06909e+01
2
# CELL(abcABC):   37.69329    37.69329    37.69329    90.00000    90.00000    90.00000  Step:         550  Bead:       3 forces{piconewton}  cell{angstrom}
       H  1.27997e+02  8.47118e+01 -4.79811e+00
       H -1.27997e+02 -8.47118e+01  4.79811e+00
2
# CELL(abcABC):   37.69329    37.69329    37.69329    90.00000    90.00000    90.00000  Step:         555  Bead:       3 forces{piconewton}  cell{angstrom}
       H -1.19511e+03 -7.09499e+02  7.01417e+01
       H  1.19511e+03  7.09499e+02 -7.01417e+01
2
# CELL(abcABC):   37.69329    37.69329    37.69329    90.00000    90.00000    90.00000  Step:         560  Bead:       3 forces{piconewton}  cell{angstrom}
       H -2.16354e+03 -1.41477e+03 -7.29089e+01
       H  2.16354e+03  1.41477e+03  7.29089e+01
2
# CELL(abcABC):   37.69329    37.69329    37.69329    90.00000    90.00000    90.00000  Step:         565  Bead:       3 forces{piconewton}  cell{angstrom}
       H -1.22827e+03 -9.66787e+02  5.58579e+01
       H  1.22827e+03  9.66787e+02 -5.58579e+01
2
# CELL(abcABC):   37.69329    37.69329    37.69329    90.00000    90.00000    90.00000  Step:         570  Bead:       3 forces{piconewton}  cell{angstrom}
       H -1.49535e+03 -1.44304e+03  1.25814e+02
       H  1.49535e+03  1.44304e+03 -1.25814e+02
2
# CELL(abcABC):   37.69329    37.69329    37.69329    90.00000    90.00000    90.00000  Step:         575  Bead:       3 forces{piconewton}  cell{angstrom}
       H -8.08208e+02 -8.80244e+02  1.73556e+01
       H  8.08208e+02  8.80244e+02 -1.73556e+01
2
# CELL(abcABC):   37.69329    37.69329    37.69329    90.00000    90.00000    90.00000  Step:         580  Bead:       3 forces{piconewton}  cell{angstrom}
       H  2.55675e+03  2.96652e+03  1.48349e+02
       H -2.55675e+03 -2.96652e+03 -1.48349e+02
2
# CELL(abcABC):   37.69329    37.69329    37.69329    90.00000    90.00000    90.00000  Step:         585  Bead:       3 forces{piconewton}  cell{angstrom}
       H  5.17678e+03  6.05431e+03  8.77577e+02
       H -5.17678e+03 -6.05431e+03 -8.77577e+02
2