2
# CELL(abcABC):   37.69329    37.69329    37.69329    90.00000    90.00000    90.00000  Step:           0  Bead:       1 forces{piconewton}  cell{angstrom}
       H  2.13084e+04 -6.29184e+03 -2.09728e+02
       H -2.13084e+04  6.29184e+03  2.09728e+02
2
# CELL(abcABC):   37.69329    37.69329    37.69329    90.00000    90.00000    90.00000  Step:           5  Bead:       1 forces{piconewton}  cell{angstrom}
       H  7.56510e+02 -2.93573e+02  1.77860e+01
       H -7.56510e+02  2.93573e+02 -1.77860e+01
2
# CELL(abcABC):   37.69329    37.69329    37.69329    90.00000    90.00000    90.00000  Step:          10  Bead:       1 forces{piconewton}  cell{angstrom}
       H -8.79203e+03  3.55812e+03 -6.15283e+02
       H  8.79203e+03 -3.55812e+03  6.15283e+02
2
# CELL(abcABC):   37.69329    37.69329    37.69329    90.00000    90.00000    90.00000  Step:          15  Bead:       1 forces{piconewton}  cell{angstrom}
       H -9.49012e+03  3.87866e+03 -4.80407e+02
       H  9.49012e+03 -3.87866e+03  4.80407e+02
2
# CELL(abcABC):   37.69329    37.69329    37.69329    90.00000    90.00000    90.00000  Step:          20  Bead:       1 forces{piconewton}  cell{angstrom}
       H -2.87778e+03  1.43175e+03  1.84553e+02
       H  2.87778e+03 -1.43175e+03 -1.84553e+02
2
# CELL(abcABC):   37.69329    37.69329    37.69329    90.00000    90.00000    90.00000  Step:          25  Bead:       1 forces{piconewton}  cell{angstrom}
       H  1.26977e+04 -8.65388e+03 -2.98627e+03
       H -1.26977e+04  8.65388e+03  2.98627e+03
2
# CELL(abcABC):   37.69329    37.69329    37.69329    90.00000    90.00000    90.00000  Step:          30  Bead:       1 forces{piconewton}  cell{angstrom}
       H  5.74807e+03 -4.57044e+03 -1.59947e+03
       H -5.74807e+03  4.57044e+03  1.59947e+03
2
# CELL(abcABC):   37.69329    37.69329    37.69329    90.00000    90.00000    90.00000  Step:          35  Bead:       1 forces{piconewton}  cell{angstrom}
       H -6.19132e+03  4.35275e+03  1.95259e+03
       H  6.19132e+03 -4.35275e+03 -1.95259e+03
2
# CELL(abcABC):   37.69329    37.69329    37.69329    90.00000    90.00000    90.00000  Step:          40  Bead:       1 forces{piconewton}  cell{angstrom}
       H -7.72407e+03  5.25906e+03  2.62958e+03
       H  7.72407e+03 -5.25906e+03 -2.62958e+03
2
# CELL(abcABC):   37.69329    37.69329    37.69329    90.00000    90.00000    90.00000  Step:          45  Bead:       1 forces{piconewton}  cell{angstrom}
       H -3.58095e+03  2.21596e+03  1.33666e+03
       H  3.58095e+03 -2.21596e+03 -1.33666e+03
2
# CELL(abcABC):   37.69329    37.69329    37.69329    90.00000    90.00000    90.00000  Step:          50  Bead:       1 forces{piconewton}  cell{angstrom}
       H  9.44545e+03 -4.82670e+03 -5.21068e+03
       H -9.44545e+03  4.82670e+03  5.21068e+03
2
# CELL(abcABC):   37.69329    37.69329    37.69329    90.00000    90.00000    90.00000  Step:          55  Bead:       1 forces{piconewton}  cell{angstrom}
       H  4.75305e+03 -1.63456e+03 -2.79949e+03
       H -4.75305e+03  1.63456e+03  2.79949e+03
2
# CELL(abcABC):   37.69329    37.69329    37.69329    90.00000    90.00000    90.00000  Step:          60  Bead:       1 forces{piconewton}  cell{angstrom}
       H -8.22546e+03  1.85696e+03  3.83454e+03
       H  8.22546e+03 -1.85696e+03 -3.83454e+03
2
# CELL(abcABC):   37.69329    37.69329    37.69329    90.00000    90.00000    90.00000  Step:          65  Bead:       1 forces{piconewton}  cell{angstrom}
       H -9.74471e+03  1.00361e+03  3.66955e+03
       H  9.74471e+03 -1.00361e+03 -3.66955e+03
2
# CELL(abcABC):   37.69329    37.69329    37.69329    90.00000    90.00000    90.00000  Step:          70  Bead:       1 forces{piconewton}  cell{angstrom}
       H -4.06363e+03  1.00646e+02  1.18865e+03
       H  4.06363e+03 -1.00646e+02 -1.18865e+03
2
# CELL(abcABC):   37.69329    37.69329    37.69329    90.00000    90.00000    90.00000  Step:          75  Bead:       1 forces{piconewton}  cell{angstrom}
       H  8.91728e+03  3.51637e+01 -1.96211e+03
       H -8.91728e+03 -3.51637e+01  1.96211e+03
2
# CELL(abcABC):   37.69329    37.69329    37.69329    90.00000    90.00000    90.00000  Step:          80  Bead:       1 forces{piconewton}  cell{angstrom}
       H  9.89588e+03 -4.52226e+02 -1.32571e+03
       H -9.89588e+03  4.52226e+02  1.32571e+03
2
# CELL(abcABC):   37.69329    37.69329    37.69329    90.00000    90.00000    90.00000  Step:          85  Bead:       1 forces{piconewton}  cell{angstrom}
       H -5.79809e+03  5.52055e+02  7.49084e+01
       H  5.79809e+03 -5.52055e+02 -7.49084e+01
2
# CELL(abcABC):   37.69329    37.69329    37.69329    90.00000    90.00000    90.00000  Step:          90  Bead:       1 forces{piconewton}  cell{angstrom}
       H -9.87917e+03  1.29034e+03 -5.33611e+02
       H  9.87917e+03 -1.29034e+03  5.33611e+02
2
# CELL(abcABC):   37.69329    37.69329    37.69329    90.00000    90.00000    90.00000  Step:          95  Bead:       1 forces{piconewton}  cell{angstrom}
       H -6.46517e+03  1.42049e+03 -2.93331e+02
       H  6.46517e+03 -1.42049e+03  2.93331e+02
2
# CELL(abcABC):   37.69329    37.69329    37.69329    90.00000    90.00000    90.00000  Step:         100  Bead:       1 forces{piconewton}  cell{angstrom}
       H  5.99827e+03 -1.68740e+03 -2.41541e+02
       H -5.99827e+03  1.68740e+03  2.41541e+02
2
# CELL(abcABC):   37.69329    37.69329    37.69329    90.00000    90.00000    90.00000  Step:         105  Bead:       1 forces{piconewton}  cell{angstrom}
       H  1.22806e+04 -2.98105e+03 -1.64661e+03
       H -1.22806e+04  2.98105e+03  1.64661e+03
2
# CELL(abcABC):   37.69329    37.69329    37.69329    90.00000    90.00000    90.00000  Step:         110  Bead:       1 forces{piconewton}  cell{angstrom}
       H -6.17093e+02  7.27659e+01  1.61954e+02
       H  6.17093e+02 -7.27659e+01 -1.61954e+02
2
# CELL(abcABC):   37.69329    37.69329    37.69329    90.00000    90.00000    90.00000  Step:         115  Bead:       1 forces{piconewton}  cell{angstrom}
       H -6.71962e+03  1.60700e+02  1.91900e+03
       H  6.71962e+03 -1.60700e+02 -1.91900e+03
2
# CELL(abcABC):   37.69329    37.69329    37.69329    90.00000    90.00000    90.00000  Step:         120  Bead:       1 forces{piconewton}  cell{angstrom}
       H -4.69752e+03 -1.87492e+02  1.51915e+03
       H  4.69752e+03  1.87492e+02 -1.51915e+03
2
# CELL(abcABC):   37.69329    37.69329    37.69329    90.00000    90.00000    90.00000  Step:         125  Bead:       1 forces{piconewton}  cell{angstrom}
       H  1.08936e+04  2.06506e+03 -4.05888e+03
       H -1.08936e+04 -2.06506e+03  4.05888e+03
2
# CELL(abcABC):   37.69329    37.69329    37.69329    90.00000    90.00000    90.00000  Step:         130  Bead:       1 forces{piconewton}  cell{angstrom}
       H  4.60483e+03  1.65844e+03 -1.80021e+03
       H -4.60483e+03 -1.65844e+03  1.80021e+03
2
# CELL(abcABC):   37.69329    37.69329    37.69329    90.00000    90.00000    90.00000  Step:         135  Bead:       1 forces{piconewton}  cell{angstrom}
       H -5.45856e+03 -2.33217e+03  2.36729e+03
       H  5.45856e+03  2.33217e+03 -2.36729e+03
2
# CELL(abcABC):   37.69329    37.69329    37.69329    90.00000    90.00000    90.00000  Step:         140  Bead:       1 forces{piconewton}  cell{angstrom}
       H -7.04155e+03 -3.35665e+03  3.24215e+03
       H  7.04155e+03  3.35665e+03 -3.24215e+03
2
# CELL(abcABC):   37.69329    37.69329    37.69329    90.00000    90.00000    90.00000  Step:         145  Bead:       1 forces{piconewton}  cell{angstrom}
       H -5.99559e+03 -2.94812e+03  2.96246e+03
       H  5.99559e+03  2.94812e+03 -2.96246e+03
2
# CELL(abcABC):   37.69329    37.69329    37.69329    90.00000    90.00000    90.00000  Step:         150  Bead:       1 forces{piconewton}  cell{angstrom}
       H  4.38399e+03  1.89653e+03 -2.03811e+03
       H -4.38399e+03 -1.89653e+03  2.03811e+03
2
# CELL(abcABC):   37.69329    37.69329    37.69329    90.00000    90.00000    90.00000  Step:         155  Bead:       1 forces{piconewton}  cell{angstrom}
       H  9.83323e+03  4.95374e+03 -5.04727e+03
       H -9.83323e+03 -4.95374e+03  5.04727e+03
2
# CELL(abcABC):   37.69329    37.69329    37.69329    90.00000    90.00000    90.00000  Step:         160  Bead:       1 forces{piconewton}  cell{angstrom}
       H  1.04972e+02  5.01909e+01 -5.34621e+01
       H -1.04972e+02 -5.01909e+01  5.34621e+01
2
# CELL(abcABC):   37.69329    37.69329    37.69329    90.00000    90.00000    90.00000  Step:         165  Bead:       1 forces{piconewton}  cell{angstrom}
       H -2.45548e+03 -1.10678e+03  1.35815e+03
       H  2.45548e+03  1.10678e+03 -1.35815e+03
2
# CELL(abcABC):   37.69329    37.69329    37.69329    90.00000    90.00000    90.00000  Step:         170  Bead:       1 forces{piconewton}  cell{angstrom}
       H -3.91468e+03 -1.57997e+03  2.10738e+03
       H  3.91468e+03  1.57997e+03 -2.10738e+03
2
# CELL(abcABC):   37.69329    37.69329    37.69329    90.00000    90.00000    90.00000  Step:         175  Bead:       1 forces{piconewton}  cell{angstrom}
       H -1.11481e+03 -4.80500e+02  4.63152e+02
       H  1.11481e+03  4.80500e+02 -4.63152e+02
2
# CELL(abcABC):   37.69329    37.69329    37.69329    90.00000    90.00000    90.00000  Step:         180  Bead:       1 forces{piconewton}  cell{angstrom}
       H  5.73795e+03  2.45392e+03 -2.09099e+03
       H -5.73795e+03 -2.45392e+03  2.09099e+03
2
# CELL(abcABC):   37.69329    37.69329    37.69329    90.00000    90.00000    90.00000  Step:         185  Bead:       1 forces{piconewton}  cell{angstrom}
       H  1.45592e+03  6.43126e+02 -4.94154e+02
       H -1.45592e+03 -6.43126e+02  4.94154e+02
2
# CELL(abcABC):   37.69329    37.69329    37.69329    90.00000    90.00000    90.00000  Step:         190  Bead:       1 forces{piconewton}  cell{angstrom}
       H -8.57182e+02 -3.44916e+02  2.54411e+02
       H  8.57182e+02  3.44916e+02 -2.54411e+02
2
# CELL(abcABC):   37.69329    37.69329    37.69329    90.00000    90.00000    90.00000  Step:         195  Bead:       1 forces{piconewton}  cell{angstrom}
       H -2.29113e+03 -6.85313e+02  4.81000e+02
       H  2.29113e+03  6.85313e+02 -4.81000e+02
2
# CELL(abcABC):   37.69329    37.69329    37.69329    90.00000    90.00000    90.00000  Step:         200  Bead:       1 forces{piconewton}  cell{angstrom}
       H -3.67826e+03 -1.10490e+03  5.33174e+02
       H  3.67826e+03  1.10490e+03 -5.33174e+02
2
# CELL(abcABC):   37.69329    37.69329    37.69329    90.00000    90.00000    90.00000  Step:         205  Bead:       1 forces{piconewton}  cell{angstrom}
       H -1.06485e+03 -3.68327e+02  1.13116e+02
       H  1.06485e+03  3.68327e+02 -1.13116e+02
2
# CELL(abcABC):   37.69329    37.69329    37.69329    90.00000    90.00000    90.00000  Step:         210  Bead:       1 forces{piconewton}  cell{angstrom}
       H -6.41977e+02 -2.68459e+02  1.22567e+01
       H  6.41977e+02  2.68459e+02 -1.22567e+01
2
# CELL(abcABC):   37.69329    37.69329    37.69329    90.00000    90.00000    90.00000  Step:         215  Bead:       1 forces{piconewton}  cell{angstrom}
       H -2.05379e+03 -9.43660e+02  1.18843e+02
       H  2.05379e+03  9.43660e+02 -1.18843e+02
2
# CELL(abcABC):   37.69329    37.69329    37.69329    90.00000    90.00000    90.00000  Step:         220  Bead:       1 forces{piconewton}  cell{angstrom}
       H -2.22710e+02 -1.38392e+02  2.75342e+01
       H  2.22710e+02  1.38392e+02 -2.75342e+01
2
# CELL(abcABC):   37.69329    37.69329    37.69329    90.00000    90.00000    90.00000  Step:         225  Bead:       1 forces{piconewton}  cell{angstrom}
       H  1.72001e+03  1.21805e+03 -3.37716e+02
       H -1.72001e+03 -1.21805e+03  3.37716e+02
2
# CELL(abcABC):   37.69329    37.69329    37.69329    90.00000    90.00000    90.00000  Step:         230  Bead:       1 forces{piconewton}  cell{angstrom}
       H -1.32461e+03 -1.05735e+03  4.34455e+02
       H  1.32461e+03  1.05735e+03 -4.34455e+02
2
# CELL(abcABC):   37.69329    37.69329    37.69329    90.00000    90.00000    90.00000  Step:         235  Bead:       1 forces{piconewton}  cell{angstrom}
       H -3.40533e+03 -3.35405e+03  1.94300e+03
       H  3.40533e+03  3.35405e+03 -1.94300e+03
2
# CELL(abcABC):   37.69329    37.69329    37.69329    90.00000    90.00000    90.00000  Step:         240  Bead:       1 forces{piconewton}  cell{angstrom}
       H -4.62932e+03 -5.33195e+03  3.80883e+03
       H  4.62932e+03  5.33195e+03 -3.80883e+03
2
# CELL(abcABC):   37.69329    37.69329    37.69329    90.00000    90.00000    90.00000  Step:         245  Bead:       1 forces{piconewton}  cell{angstrom}
       H -2.53057e+03 -3.09377e+03  2.75455e+03
       H  2.53057e+03  3.09377e+03 -2.75455e+03
2
# CELL(abcABC):   37.69329    37.69329    37.69329    90.00000    90.00000    90.00000  Step:         250  Bead:       1 forces{piconewton}  cell{angstrom}
       H  3.81145e+03  4.12802e+03 -5.56607e+03
       H -3.81145e+03 -4.12802e+03  5.56607e+03
2
# CELL(abcABC):   37.69329    37.69329    37.69329    90.00000    90.00000    90.00000  Step:         255  Bead:       1 forces{piconewton}  cell{angstrom}
       H  3.39662e+03  2.90420e+03 -5.41624e+03
       H -3.39662e+03 -2.90420e+03  5.41624e+03
2
# CELL(abcABC):   37.69329    37.69329    37.69329    90.00000    90.00000    90.00000  Step:         260  Bead:       1 forces{piconewton}  cell{angstrom}
       H -2.47452e+03 -1.41431e+03  3.32298e+03
       H  2.47452e+03  1.41431e+03 -3.32298e+03
2
# CELL(abcABC):   37.69329    37.69329    37.69329    90.00000    90.00000    90.00000  Step:         265  Bead:       1 forces{piconewton}  cell{angstrom}
       H -2.63084e+03 -1.18472e+03  3.14285e+03
       H  2.63084e+03  1.18472e+03 -3.14285e+03
2
# CELL(abcABC):   37.69329    37.69329    37.69329    90.00000    90.00000    90.00000  Step:         270  Bead:       1 forces{piconewton}  cell{angstrom}
       H  2.65645e+03  1.14552e+03 -3.14701e+03
       H -2.65645e+03 -1.14552e+03  3.14701e+03
2
# CELL(abcABC):   37.69329    37.69329    37.69329    90.00000    90.00000    90.00000  Step:         275  Bead:       1 forces{piconewton}  cell{angstrom}
       H  6.82477e+03  2.45859e+03 -6.08288e+03
       H -6.82477e+03 -2.45859e+03  6.08288e+03
2
# CELL(abcABC):   37.69329    37.69329    37.69329    90.00000    90.00000    90.00000  Step:         280  Bead:       1 forces{piconewton}  cell{angstrom}
       H -3.83648e+02 -1.23923e+02  2.75426e+02
       H  3.83648e+02  1.23923e+02 -2.75426e+02
2
# CELL(abcABC):   37.69329    37.69329    37.69329    90.00000    90.00000    90.00000  Step:         285  Bead:       1 forces{piconewton}  cell{angstrom}
       H -3.62207e+03 -1.32326e+03  2.93403e+03
       H  3.62207e+03  1.32326e+03 -2.93403e+03
2
# CELL(abcABC):   37.69329    37.69329    37.69329    90.00000    90.00000    90.00000  Step:         290  Bead:       1 forces{piconewton}  cell{angstrom}
       H -2.32520e+03 -1.18804e+03  2.35124e+03
       H  2.32520e+03  1.18804e+03 -2.35124e+03
2
# CELL(abcABC):   37.69329    37.69329    37.69329    90.00000    90.00000    90.00000  Step:         295  Bead:       1 forces{piconewton}  cell{angstrom}
       H  1.89875e+03  1.14667e+03 -2.22210e+03
       H -1.89875e+03 -1.14667e+03  2.22210e+03
2
# CELL(abcABC):   37.69329    37.69329    37.69329    90.00000    90.00000    90.00000  Step:         300  Bead:       1 forces{piconewton}  cell{angstrom}
       H  2.56918e+03  1.68753e+03 -2.88486e+03
       H -2.56918e+03 -1.68753e+03  2.88486e+03
2
# CELL(abcABC):   37.69329    37.69329    37.69329    90.00000    90.00000    90.00000  Step:         305  Bead:       1 forces{piconewton}  cell{angstrom}
       H -2.10830e+03 -1.32236e+03  2.34903e+03
       H  2.10830e+03  1.32236e+03 -2.34903e+03
2
# CELL(abcABC):   37.69329    37.69329    37.69329    90.00000    90.00000    90.00000  Step:         310  Bead:       1 forces{piconewton}  cell{angstrom}
       H -2.10352e+03 -1.00692e+03  2.31547e+03
       H  2.10352e+03  1.00692e+03 -2.31547e+03
2
# CELL(abcABC):   37.69329    37.69329    37.69329    90.00000    90.00000    90.00000  Step:         315  Bead:       1 forces{piconewton}  cell{angstrom}
       H  4.71140e+01  1.80333e+01 -6.21581e+01
       H -4.71140e+01 -1.80333e+01  6.21581e+01
2
# CELL(abcABC):   37.69329    37.69329    37.69329    90.00000    90.00000    90.00000  Step:         320  Bead:       1 forces{piconewton}  cell{angstrom}
       H  1.80958e+03  8.40178e+02 -2.88022e+03
       H -1.80958e+03 -8.40178e+02  2.88022e+03
2
# CELL(abcABC):   37.69329    37.69329    37.69329    90.00000    90.00000    90.00000  Step:         325  Bead:       1 forces{piconewton}  cell{angstrom}
       H  8.57139e+02  4.87028e+02 -1.50921e+03
       H -8.57139e+02 -4.87028e+02  1.50921e+03
2
# CELL(abcABC):   37.69329    37.69329    37.69329    90.00000    90.00000    90.00000  Step:         330  Bead:       1 forces{piconewton}  cell{angstrom}
       H  5.81374e+02  3.56475e+02 -1.00841e+03
       H -5.81374e+02 -3.56475e+02  1.00841e+03
2
# CELL(abcABC):   37.69329    37.69329    37.69329    90.00000    90.00000    90.00000  Step:         335  Bead:       1 forces{piconewton}  cell{angstrom}
       H -2.09942e+03 -1.08181e+03  3.45780e+03
       H  2.09942e+03  1.08181e+03 -3.45780e+03
2
# CELL(abcABC):   37.69329    37.69329    37.69329    90.00000    90.00000    90.00000  Step:         340  Bead:       1 forces{piconewton}  cell{angstrom}
       H -3.01590e+02 -1.21115e+02  4.82762e+02
       H  3.01590e+02  1.21115e+02 -4.82762e+02
2
# CELL(abcABC):   37.69329    37.69329    37.69329    90.00000    90.00000    90.00000  Step:         345  Bead:       1 forces{piconewton}  cell{angstrom}
       H  1.83047e+03  3.52057e+02 -2.68220e+03
       H -1.83047e+03 -3.52057e+02  2.68220e+03
2
# CELL(abcABC):   37.69329    37.69329    37.69329    90.00000    90.00000    90.00000  Step:         350  Bead:       1 forces{piconewton}  cell{angstrom}
       H  1.37709e+03  1.07332e+02 -2.05514e+03
       H -1.37709e+03 -1.07332e+02  2.05514e+03
2
# CELL(abcABC):   37.69329    37.69329    37.69329    90.00000    90.00000    90.00000  Step:         355  Bead:       1 forces{piconewton}  cell{angstrom}
       H -2.59601e+02 -1.11222e+01  3.76352e+02
       H  2.59601e+02  1.11222e+01 -3.76352e+02
2
# CELL(abcABC):   37.69329    37.69329    37.69329    90.00000    90.00000    90.00000  Step:         360  Bead:       1 forces{piconewton}  cell{angstrom}
       H -1.97499e+03 -2.08543e+02  2.56885e+03
       H  1.97499e+03  2.08543e+02 -2.56885e+03
2
# CELL(abcABC):   37.69329    37.69329    37.69329    90.00000    90.00000    90.00000  Step:         365  Bead:       1 forces{piconewton}  cell{angstrom}
       H -2.30029e+03 -3.95340e+02  2.49046e+03
       H  2.30029e+03  3.95340e+02 -2.49046e+03
2
# CELL(abcABC):   37.69329    37.69329    37.69329    90.00000    90.00000    90.00000  Step:         370  Bead:       1 forces{piconewton}  cell{angstrom}
       H  2.49609e+02  6.88761e+01 -2.14551e+02
       H -2.49609e+02 -6.88761e+01  2.14551e+02
2
# CELL(abcABC):   37.69329    37.69329    37.69329    90.00000    90.00000    90.00000  Step:         375  Bead:       1 forces{piconewton}  cell{angstrom}
       H  2.09402e+03  9.64418e+02 -1.85364e+03
       H -2.09402e+03 -9.64418e+02  1.85364e+03
2
# CELL(abcABC):   37.69329    37.69329    37.69329    90.00000    90.00000    90.00000  Step:         380  Bead:       1 forces{piconewton}  cell{angstrom}
       H -2.31290e+03 -1.20937e+03  1.93033e+03
       H  2.31290e+03  1.20937e+03 -1.93033e+03
2
# CELL(abcABC):   37.69329    37.69329    37.69329    90.00000    90.00000    90.00000  Step:         385  Bead:       1 forces{piconewton}  cell{angstrom}
       H -2.99028e+03 -1.80388e+03  2.55270e+03
       H  2.99028e+03  1.80388e+03 -2.55270e+03
2
# CELL(abcABC):   37.69329    37.69329    37.69329    90.00000    90.00000    90.00000  Step:         390  Bead:       1 forces{piconewton}  cell{angstrom}
       H -3.18252e+02 -2.24986e+02  2.66436e+02
       H  3.18252e+02  2.24986e+02 -2.66436e+02
2
# CELL(abcABC):   37.69329    37.69329    37.69329    90.00000    90.00000    90.00000  Step:         395  Bead:       1 forces{piconewton}  cell{angstrom}
       H  5.48873e+03  3.95917e+03 -4.25174e+03
       H -5.48873e+03 -3.95917e+03  4.25174e+03
2
# CELL(abcABC):   37.69329    37.69329    37.69329    90.00000    90.00000    90.00000  Step:         400  Bead:       1 forces{piconewton}  cell{angstrom}
       H  1.62819e+03  1.20478e+03 -1.17876e+03
       H -1.62819e+03 -1.20478e+03  1.17876e+03
2
# CELL(abcABC):   37.69329    37.69329    37.69329    90.00000    90.00000    90.00000  Step:         405  Bead:       1 forces{piconewton}  cell{angstrom}
       H -3.51047e+02 -2.61190e+02  2.86204e+02
       H  3.51047e+02  2.61190e+02 -2.86204e+02
2
# CELL(abcABC):   37.69329    37.69329    37.69329    90.00000    90.00000    90.00000  Step:         410  Bead:       1 forces{piconewton}  cell{angstrom}
       H -2.05444e+03 -1.24361e+03  1.88582e+03
       H  2.05444e+03  1.24361e+03 -1.88582e+03
2
# CELL(abcABC):   37.69329    37.69329    37.69329    90.00000    90.00000    90.00000  Step:         415  Bead:       1 forces{piconewton}  cell{angstrom}
       H -6.80809e+02 -4.64271e+02  7.98996e+02
       H  6.80809e+02  4.64271e+02 -7.98996e+02
2
# CELL(abcABC):   37.69329    37.69329    37.69329    90.00000    90.00000    90.00000  Step:         420  Bead:       1 forces{piconewton}  cell{angstrom}
       H  5.29322e+02  3.67069e+02 -6.02549e+02
       H -5.29322e+02 -3.67069e+02  6.02549e+02
2
# CELL(abcABC):   37.69329    37.69329    37.69329    90.00000    90.00000    90.00000  Step:         425  Bead:       1 forces{piconewton}  cell{angstrom}
       H -1.32010e+03 -9.93887e+02  1.35445e+03
       H  1.32010e+03  9.93887e+02 -1.35445e+03
2
# CELL(abcABC):   37.69329    37.69329    37.69329    90.00000    90.00000    90.00000  Step:         430  Bead:       1 forces{piconewton}  cell{angstrom}
       H -1.63925e+03 -1.27659e+03  1.47023e+03
       H  1.63925e+03  1.27659e+03 -1.47023e+03
2
# CELL(abcABC):   37.69329    37.69329    37.69329    90.00000    90.00000    90.00000  Step:         435  Bead:       1 forces{piconewton}  cell{angstrom}
       H -6.00478e+02 -4.14228e+02  4.25585e+02
       H  6.00478e+02  4.14228e+02 -4.25585e+02
2
# CELL(abcABC):   37.69329    37.69329    37.69329    90.00000    90.00000    90.00000  Step:         440  Bead:       1 forces{piconewton}  cell{angstrom}
       H  2.62377e+03  1.69212e+03 -1.54480e+03
       H -2.62377e+03 -1.69212e+03  1.54480e+03
2
# CELL(abcABC):   37.69329    37.69329    37.69329    90.00000    90.00000    90.00000  Step:         445  Bead:       1 forces{piconewton}  cell{angstrom}
       H  1.06201e+03  5.20166e+02 -5.74499e+02
       H -1.06201e+03 -5.20166e+02  5.74499e+02
2
# CELL(abcABC):   37.69329    37.69329    37.69329    90.00000    90.00000    90.00000  Step:         450  Bead:       1 forces{piconewton}  cell{angstrom}
       H -3.22862e+03 -1.31634e+03  1.82049e+03
       H  3.22862e+03  1.31634e+03 -1.82049e+03
2
# CELL(abcABC):   37.69329    37.69329    37.69329    90.00000    90.00000    90.00000  Step:         455  Bead:       1 forces{piconewton}  cell{angstrom}
       H -2.17295e+03 -1.02799e+03  1.30142e+03
       H  2.17295e+03  1.02799e+03 -1.30142e+03
2
# CELL(abcABC):   37.69329    37.69329    37.69329    90.00000    90.00000    90.00000  Step:         460  Bead:       1 forces{piconewton}  cell{angstrom}
       H  2.16832e+03  1.39880e+03 -1.47159e+03
       H -2.16832e+03 -1.39880e+03  1.47159e+03
2
# CELL(abcABC):   37.69329    37.69329    37.69329    90.00000    90.00000    90.00000  Step:         465  Bead:       1 forces{piconewton}  cell{angstrom}
       H  1.47697e+02  1.01675e+02 -1.04007e+02
       H -1.47697e+02 -1.01675e+02  1.04007e+02
2
# CELL(abcABC):   37.69329    37.69329    37.69329    90.00000    90.00000    90.00000  Step:         470  Bead:       1 forces{piconewton}  cell{angstrom}
       H -1.63046e+03 -1.34445e+03  1.10886e+03
       H  1.63046e+03  1.34445e+03 -1.10886e+03
2
# CELL(abcABC):   37.69329    37.69329    37.69329    90.00000    90.00000    90.00000  Step:         475  Bead:       1 forces{piconewton}  cell{angstrom}
       H -1.83679e+02 -1.91920e+02  1.34626e+02
       H  1.83679e+02  1.91920e+02 -1.34626e+02
2
# CELL(abcABC):   37.69329    37.69329    37.69329    90.00000    90.00000    90.00000  Step:         480  Bead:       1 forces{piconewton}  cell{angstrom}
       H  3.58929e+01  5.06316e+01 -2.70100e+01
       H -3.58929e+01 -5.06316e+01  2.70100e+01
2
# CELL(abcABC):   37.69329    37.69329    37.69329    90.00000    90.00000    90.00000  Step:         485  Bead:       1 forces{piconewton}  cell{angstrom}
       H  1.26776e+03  2.20398e+03 -1.01780e+03
       H -1.26776e+03 -2.20398e+03  1.01780e+03
2
# CELL(abcABC):   37.69329    37.69329    37.69329    90.00000    90.00000    90.00000  Step:         490  Bead:       1 forces{piconewton}  cell{angstrom}
       H  2.44341e+03  4.87816e+03 -2.50896e+03
       H -2.44341e+03 -4.87816e+03  2.50896e+03
2
# CELL(abcABC):   37.69329    37.69329    37.69329    90.00000    90.00000    90.00000  Step:         495  Bead:       1 forces{piconewton}  cell{angstrom}
       H -3.29777e+02 -6.22697e+02  2.97367e+02
       H  3.29777e+02  6.22697e+02 -2.97367e+02
2
# CELL(abcABC):   37.69329    37.69329    37.69329    90.00000    90.00000    90.00000  Step:         500  Bead:       1 forces{piconewton}  cell{angstrom}
       H -2.20368e+03 -3.68858e+03  1.47905e+03
       H  2.20368e+03  3.68858e+03 -1.47905e+03
2
# CELL(abcABC):   37.69329    37.69329    37.69329    90.00000    90.00000    90.00000  Step:         505  Bead:       1 forces{piconewton}  cell{angstrom}
       H -3.98763e+02 -6.89573e+02  2.48181e+02
       H  3.98763e+02  6.89573e+02 -2.48181e+02
2
# CELL(abcABC):   37.69329    37.69329    37.69329    90.00000    90.00000    90.00000  Step:         510  Bead:       1 forces{piconewton}  cell{angstrom}
       H  1.71838e+03  4.08930e+03 -1.31840e+03
       H -1.71838e+03 -4.08930e+03  1.31840e+03
2
# CELL(abcABC):   37.69329    37.69329    37.69329    90.00000    90.00000    90.00000  Step:         515  Bead:       1 forces{piconewton}  cell{angstrom}
       H  3.66936e+02  1.13966e+03 -4.23321e+02
       H -3.66936e+02 -1.13966e+03  4.23321e+02
2
# CELL(abcABC):   37.69329    37.69329    37.69329    90.00000    90.00000    90.00000  Step:         520  Bead:       1 forces{piconewton}  cell{angstrom}
       H -1.02901e+03 -3.57895e+03  1.01049e+03
       H  1.02901e+03  3.57895e+03 -1.01049e+03
2
# CELL(abcABC):   37.69329    37.69329    37.69329    90.00000    90.00000    90.00000  Step:         525  Bead:       1 forces{piconewton}  cell{angstrom}
       H -1.16483e+03 -2.70199e+03  4.15054e+02
       H  1.16483e+03  2.70199e+03 -4.15054e+02
2
# CELL(abcABC):   37.69329    37.69329    37.69329    90.00000    90.00000    90.00000  Step:         530  Bead:       1 forces{piconewton}  cell{angstrom}
       H -1.00315e+02 -2.00235e+02  2.15869e+00
       H  1.00315e+02  2.00235e+02 -2.15869e+00
2
# CELL(abcABC):   37.69329    37.69329    37.69329    90.00000    90.00000    90.00000  Step:         535  Bead:       1 forces{piconewton}  cell{angstrom}
       H  3.12219e+03  5.63748e+03  5.65622e+01
       H -3.12219e+03 -5.63748e+03 -5.65622e+01
2
# CELL(abcABC):   37.69329    37.69329    37.69329    90.00000    90.00000    90.00000  Step:         540  Bead:       1 forces{piconewton}  cell{angstrom}
       H  1.84246e+03  3.49701e+03  4.12573e+01
       H -1.84246e+03 -3.49701e+03 -4.12573e+01
2
# CELL(abcABC):   37.69329    37.69329    37.69329    90.00000    90.00000    90.00000  Step:         545  Bead:       1 forces{piconewton}  cell{angstrom}
       H -1.52406e+03 -2.97764e+03 -2.25539e+01
       H  1.52406e+03  2.97764e+03  2.25539e+01
2
# CELL(abcABC):   37.69329    37.69329    37.69329    90.00000    90.00000    90.00000  Step:         550  Bead:       1 forces{piconewton}  cell{angstrom}
       H -2.09571e+03 -3.50655e+03  2.08311e+02
       H  2.09571e+03  3.50655e+03 -2.08311e+02
2
# CELL(abcABC):   37.69329    37.69329    37.69329    90.00000    90.00000    90.00000  Step:         555  Bead:       1 forces{piconewton}  cell{angstrom}
       H  3.76122e+02  5.23031e+02 -6.27766e+01
       H -3.76122e+02 -5.23031e+02  6.27766e+01
2
# CELL(abcABC):   37.69329    37.69329    37.69329    90.00000    90.00000    90.00000  Step:         560  Bead:       1 forces{piconewton}  cell{angstrom}
       H  1.48476e+03  1.94984e+03 -6.12421e+01
       H -1.48476e+03 -1.94984e+03  6.12421e+01
2
# CELL(abcABC):   37.69329    37.69329    37.69329    90.00000    90.00000    90.00000  Step:         565  Bead:       1 forces{piconewton}  cell{angstrom}
       H -1.38912e+02 -1.83590e+02 -2.16476e+01
       H  1.38912e+02  1.83590e+02  2.16476e+01
2
# CELL(abcABC):   37.69329    37.69329    37.69329    90.00000    90.00000    90.00000  Step:         570  Bead:       1 forces{piconewton}  cell{angstrom}
       H  5.24852e+02  7.05557e+02  1.30860e+02
       H -5.24852e+02 -7.05557e+02 -1.30860e+02
2
# CELL(abcABC):   37.69329    37.69329    37.69329    90.00000    90.00000    90.00000  Step:         575  Bead:       1 forces{piconewton}  cell{angstrom}
       H  5.74402e+02  7.58920e+02  1.44486e+02
       H -5.74402e+02 -7.58920e+02 -1.44486e+02
2
# CELL(abcABC):   37.69329    37.69329    37.69329    90.00000    90.00000    90.00000  Step:         580  Bead:       1 forces{piconewton}  cell{angstrom}
       H -3.36222e+02 -4.13960e+02 -6.19090e+01
       H  3.36222e+02  4.13960e+02  6.19090e+01
2
# CELL(abcABC):   37.69329    37.69329    37.69329    90.00000    90.00000    90.00000  Step:         585  Bead:       1 forces{piconewton}  cell{angstrom}
       H -3.56791e+03 -4.11081e+03  1.86426e+02
       H  3.56791e+03  4.11081e+03 -1.86426e+02
2